Title: * Este es un circuito sencillo adaptado para LTspice
Date: Sun Dec 20 03:03:07 2020
Plotname: DC transfer characteristic
Flags: real forward
No. Variables: 4
No. Points:            2
Offset:   0.0000000000000000e+000
Command: Linear Technology Corporation LTspice XVII
Variables:
	0	v1	voltage
	1	V(1)	voltage
	2	I(R1)	device_current
	3	I(V1)	device_current
Values:
0		1.000000000000000e+000
	-1.000000000000000e+000
	-1.000000000000000e-002
	-1.000000000000000e-002
1		1.000000000000000e+001
	-1.000000000000000e+001
	-1.000000000000000e-001
	-1.000000000000000e-001
