Title: * Circuito en corriente alterna
Date: Mon Dec 21 19:27:26 2020
Plotname: Transient Analysis
Flags: real forward
No. Variables: 4
No. Points:         1042
Offset:   0.0000000000000000e+000
Command: Linear Technology Corporation LTspice XVII
Variables:
	0	time	time
	1	V(1)	voltage
	2	I(R1)	device_current
	3	I(V1)	device_current
Values:
0		0.000000000000000e+000
	0.000000000000000e+000
	0.000000000000000e+000
	0.000000000000000e+000
1		4.882812487672084e-010
	2.208932328978293e-005
	-2.208932328978293e-009
	-2.208932328978293e-009
2		9.765624975344167e-010
	4.417864657956511e-005
	-4.417864657956511e-009
	-4.417864657956511e-009
3		1.953124995068833e-009
	8.835729315912422e-005
	-8.835729315912422e-009
	-8.835729315912422e-009
4		3.906249990137667e-009
	1.767145863182005e-004
	-1.767145863182005e-008
	-1.767145863182005e-008
5		7.812499980275334e-009
	3.534291726360178e-004
	-3.534291726360179e-008
	-3.534291726360179e-008
6		1.562499996055067e-008
	7.068583452689700e-004
	-7.068583452689700e-008
	-7.068583452689700e-008
7		3.124999992110134e-008
	1.413716690513413e-003
	-1.413716690513413e-007
	-1.413716690513413e-007
8		6.249999984220267e-008
	2.827433380830615e-003
	-2.827433380830615e-007
	-2.827433380830615e-007
9		1.249999996844053e-007
	5.654866760091537e-003
	-5.654866760091538e-007
	-5.654866760091538e-007
10		2.499999993688107e-007
	1.130973350762553e-002
	-1.130973350762553e-006
	-1.130973350762553e-006
11		4.999999987376214e-007
	2.261946691479073e-002
	-2.261946691479073e-006
	-2.261946691479073e-006
12		9.999999974752427e-007
	4.523893302589878e-002
	-4.523893302589878e-006
	-4.523893302589878e-006
13		1.999999994950485e-006
	9.047785962233632e-002
	-9.047785962233632e-006
	-9.047785962233632e-006
14		3.999999989900971e-006
	1.809556678089881e-001
	-1.809556678089881e-005
	-1.809556678089881e-005
15		7.999999979801942e-006
	3.619109241326751e-001
	-3.619109241326751e-005
	-3.619109241326751e-005
16		1.599999995960388e-005
	7.238185563885561e-001
	-7.238185563885561e-005
	-7.238185563885561e-005
17		3.199999991920777e-005
	1.447610777942413e+000
	-1.447610777942413e-004
	-1.447610777942413e-004
18		6.399999983841553e-005
	2.895010882956074e+000
	-2.895010882956074e-004
	-2.895010882956074e-004
19		1.128281248384155e-004
	5.102685125454776e+000
	-5.102685125454776e-004
	-5.102685125454776e-004
20		1.616562498384155e-004
	7.308630392452614e+000
	-7.308630392452613e-004
	-7.308630392452613e-004
21		2.104843748384156e-004
	9.512099229378292e+000
	-9.512099229378292e-004
	-9.512099229378292e-004
22		2.593124998384155e-004
	1.171234502076519e+001
	-1.171234502076519e-003
	-1.171234502076519e-003
23		3.081406248384155e-004
	1.390862224323185e+001
	-1.390862224323185e-003
	-1.390862224323185e-003
24		3.569687498384155e-004
	1.610018671809248e+001
	-1.610018671809248e-003
	-1.610018671809248e-003
25		4.057968748384155e-004
	1.828629586351174e+001
	-1.828629586351174e-003
	-1.828629586351174e-003
26		4.546249998384155e-004
	2.046620894611851e+001
	-2.046620894611852e-003
	-2.046620894611852e-003
27		5.034531248384155e-004
	2.263918733199339e+001
	-2.263918733199339e-003
	-2.263918733199339e-003
28		5.522812498384155e-004
	2.480449473694466e+001
	-2.480449473694466e-003
	-2.480449473694466e-003
29		6.011093748384156e-004
	2.696139747598824e+001
	-2.696139747598824e-003
	-2.696139747598824e-003
30		6.499374998384156e-004
	2.910916471194688e+001
	-2.910916471194688e-003
	-2.910916471194688e-003
31		6.987656248384157e-004
	3.124706870308436e+001
	-3.124706870308437e-003
	-3.124706870308437e-003
32		7.475937498384157e-004
	3.337438504969093e+001
	-3.337438504969093e-003
	-3.337438504969093e-003
33		7.964218748384158e-004
	3.549039293953626e+001
	-3.549039293953627e-003
	-3.549039293953627e-003
34		8.452499998384158e-004
	3.759437539210693e+001
	-3.759437539210693e-003
	-3.759437539210693e-003
35		8.940781248384158e-004
	3.968561950154544e+001
	-3.968561950154544e-003
	-3.968561950154544e-003
36		9.429062498384159e-004
	4.176341667820879e+001
	-4.176341667820879e-003
	-4.176341667820879e-003
37		9.917343748384159e-004
	4.382706288876432e+001
	-4.382706288876432e-003
	-4.382706288876432e-003
38		1.040562499838416e-003
	4.587585889474197e+001
	-4.587585889474197e-003
	-4.587585889474197e-003
39		1.089390624838416e-003
	4.790911048946160e+001
	-4.790911048946161e-003
	-4.790911048946161e-003
40		1.138218749838416e-003
	4.992612873325561e+001
	-4.992612873325562e-003
	-4.992612873325562e-003
41		1.187046874838416e-003
	5.192623018690664e+001
	-5.192623018690664e-003
	-5.192623018690664e-003
42		1.235874999838416e-003
	5.390873714322182e+001
	-5.390873714322182e-003
	-5.390873714322182e-003
43		1.284703124838416e-003
	5.587297785666455e+001
	-5.587297785666455e-003
	-5.587297785666455e-003
44		1.333531249838416e-003
	5.781828677096633e+001
	-5.781828677096633e-003
	-5.781828677096633e-003
45		1.382359374838416e-003
	5.974400474464149e+001
	-5.974400474464150e-003
	-5.974400474464150e-003
46		1.431187499838416e-003
	6.164947927432836e+001
	-6.164947927432836e-003
	-6.164947927432836e-003
47		1.480015624838416e-003
	6.353406471588107e+001
	-6.353406471588107e-003
	-6.353406471588107e-003
48		1.528843749838416e-003
	6.539712250313735e+001
	-6.539712250313736e-003
	-6.539712250313736e-003
49		1.577671874838416e-003
	6.723802136428806e+001
	-6.723802136428806e-003
	-6.723802136428806e-003
50		1.626499999838417e-003
	6.905613753577492e+001
	-6.905613753577493e-003
	-6.905613753577493e-003
51		1.675328124838417e-003
	7.085085497364440e+001
	-7.085085497364441e-003
	-7.085085497364441e-003
52		1.724156249838417e-003
	7.262156556228588e+001
	-7.262156556228588e-003
	-7.262156556228588e-003
53		1.772984374838417e-003
	7.436766932048325e+001
	-7.436766932048325e-003
	-7.436766932048325e-003
54		1.821812499838417e-003
	7.608857460471046e+001
	-7.608857460471046e-003
	-7.608857460471046e-003
55		1.870640624838417e-003
	7.778369830960190e+001
	-7.778369830960191e-003
	-7.778369830960191e-003
56		1.919468749838417e-003
	7.945246606552971e+001
	-7.945246606552971e-003
	-7.945246606552971e-003
57		1.968296874838417e-003
	8.109431243322105e+001
	-8.109431243322106e-003
	-8.109431243322106e-003
58		2.017124999838416e-003
	8.270868109534966e+001
	-8.270868109534967e-003
	-8.270868109534967e-003
59		2.065953124838416e-003
	8.429502504503628e+001
	-8.429502504503628e-003
	-8.429502504503628e-003
60		2.114781249838416e-003
	8.585280677119459e+001
	-8.585280677119460e-003
	-8.585280677119460e-003
61		2.163609374838416e-003
	8.738149844065956e+001
	-8.738149844065957e-003
	-8.738149844065957e-003
62		2.212437499838416e-003
	8.888058207703634e+001
	-8.888058207703635e-003
	-8.888058207703635e-003
63		2.261265624838416e-003
	9.034954973620981e+001
	-9.034954973620982e-003
	-9.034954973620982e-003
64		2.310093749838415e-003
	9.178790367845433e+001
	-9.178790367845434e-003
	-9.178790367845434e-003
65		2.358921874838415e-003
	9.319515653708619e+001
	-9.319515653708619e-003
	-9.319515653708619e-003
66		2.407749999838415e-003
	9.457083148360110e+001
	-9.457083148360111e-003
	-9.457083148360111e-003
67		2.456578124838415e-003
	9.591446238924114e+001
	-9.591446238924115e-003
	-9.591446238924115e-003
68		2.505406249838415e-003
	9.722559398293609e+001
	-9.722559398293610e-003
	-9.722559398293610e-003
69		2.554234374838415e-003
	9.850378200556585e+001
	-9.850378200556585e-003
	-9.850378200556585e-003
70		2.603062499838414e-003
	9.974859336049165e+001
	-9.974859336049165e-003
	-9.974859336049165e-003
71		2.651890624838414e-003
	1.009596062603049e+002
	-1.009596062603049e-002
	-1.009596062603049e-002
72		2.700718749838414e-003
	1.021364103697442e+002
	-1.021364103697442e-002
	-1.021364103697442e-002
73		2.749546874838414e-003
	1.032786069447317e+002
	-1.032786069447317e-002
	-1.032786069447317e-002
74		2.798374999838414e-003
	1.043858089674823e+002
	-1.043858089674823e-002
	-1.043858089674823e-002
75		2.847203124838414e-003
	1.054576412776393e+002
	-1.054576412776393e-002
	-1.054576412776393e-002
76		2.896031249838413e-003
	1.064937406993925e+002
	-1.064937406993925e-002
	-1.064937406993925e-002
77		2.944859374838413e-003
	1.074937561645349e+002
	-1.074937561645349e-002
	-1.074937561645349e-002
78		2.993687499838413e-003
	1.084573488314182e+002
	-1.084573488314182e-002
	-1.084573488314182e-002
79		3.042515624838413e-003
	1.093841921997639e+002
	-1.093841921997639e-002
	-1.093841921997639e-002
80		3.091343749838413e-003
	1.102739722212941e+002
	-1.102739722212941e-002
	-1.102739722212941e-002
81		3.140171874838412e-003
	1.111263874061420e+002
	-1.111263874061420e-002
	-1.111263874061420e-002
82		3.188999999838412e-003
	1.119411489250079e+002
	-1.119411489250079e-002
	-1.119411489250079e-002
83		3.237828124838412e-003
	1.127179807070251e+002
	-1.127179807070251e-002
	-1.127179807070251e-002
84		3.286656249838412e-003
	1.134566195333027e+002
	-1.134566195333027e-002
	-1.134566195333027e-002
85		3.335484374838412e-003
	1.141568151261138e+002
	-1.141568151261138e-002
	-1.141568151261138e-002
86		3.384312499838412e-003
	1.148183302336985e+002
	-1.148183302336985e-002
	-1.148183302336985e-002
87		3.433140624838411e-003
	1.154409407106537e+002
	-1.154409407106537e-002
	-1.154409407106537e-002
88		3.481968749838411e-003
	1.160244355938817e+002
	-1.160244355938817e-002
	-1.160244355938817e-002
89		3.530796874838411e-003
	1.165686171740717e+002
	-1.165686171740717e-002
	-1.165686171740717e-002
90		3.579624999838411e-003
	1.170733010626919e+002
	-1.170733010626919e-002
	-1.170733010626919e-002
91		3.628453124838411e-003
	1.175383162544658e+002
	-1.175383162544658e-002
	-1.175383162544658e-002
92		3.677281249838411e-003
	1.179635051853163e+002
	-1.179635051853163e-002
	-1.179635051853163e-002
93		3.726109374838410e-003
	1.183487237857530e+002
	-1.183487237857530e-002
	-1.183487237857530e-002
94		3.774937499838410e-003
	1.186938415296890e+002
	-1.186938415296890e-002
	-1.186938415296890e-002
95		3.823765624838410e-003
	1.189987414786674e+002
	-1.189987414786674e-002
	-1.189987414786674e-002
96		3.872593749838410e-003
	1.192633203214846e+002
	-1.192633203214846e-002
	-1.192633203214846e-002
97		3.921421874838410e-003
	1.194874884091959e+002
	-1.194874884091959e-002
	-1.194874884091959e-002
98		3.970249999838410e-003
	1.196711697854914e+002
	-1.196711697854914e-002
	-1.196711697854914e-002
99		4.019078124838409e-003
	1.198143022124334e+002
	-1.198143022124334e-002
	-1.198143022124334e-002
100		4.067906249838409e-003
	1.199168371915444e+002
	-1.199168371915444e-002
	-1.199168371915444e-002
101		4.116734374838409e-003
	1.199787399802403e+002
	-1.199787399802403e-002
	-1.199787399802403e-002
102		4.165562499838409e-003
	1.199999896036026e+002
	-1.199999896036026e-002
	-1.199999896036026e-002
103		4.214390624838409e-003
	1.199805788614852e+002
	-1.199805788614852e-002
	-1.199805788614852e-002
104		4.263218749838408e-003
	1.199205143309542e+002
	-1.199205143309542e-002
	-1.199205143309542e-002
105		4.312046874838408e-003
	1.198198163640595e+002
	-1.198198163640595e-002
	-1.198198163640595e-002
106		4.360874999838408e-003
	1.196785190809384e+002
	-1.196785190809384e-002
	-1.196785190809384e-002
107		4.409703124838408e-003
	1.194966703582549e+002
	-1.194966703582549e-002
	-1.194966703582549e-002
108		4.458531249838408e-003
	1.192743318129771e+002
	-1.192743318129771e-002
	-1.192743318129771e-002
109		4.507359374838408e-003
	1.190115787814990e+002
	-1.190115787814990e-002
	-1.190115787814990e-002
110		4.556187499838407e-003
	1.187085002941142e+002
	-1.187085002941142e-002
	-1.187085002941142e-002
111		4.605015624838407e-003
	1.183651990448488e+002
	-1.183651990448488e-002
	-1.183651990448488e-002
112		4.653843749838407e-003
	1.179817913566649e+002
	-1.179817913566649e-002
	-1.179817913566649e-002
113		4.702671874838407e-003
	1.175584071420467e+002
	-1.175584071420468e-002
	-1.175584071420468e-002
114		4.751499999838407e-003
	1.170951898589808e+002
	-1.170951898589808e-002
	-1.170951898589808e-002
115		4.800328124838407e-003
	1.165922964623477e+002
	-1.165922964623477e-002
	-1.165922964623477e-002
116		4.849156249838406e-003
	1.160498973507395e+002
	-1.160498973507395e-002
	-1.160498973507395e-002
117		4.897984374838406e-003
	1.154681763087233e+002
	-1.154681763087233e-002
	-1.154681763087233e-002
118		4.946812499838406e-003
	1.148473304445676e+002
	-1.148473304445676e-002
	-1.148473304445676e-002
119		4.995640624838406e-003
	1.141875701234551e+002
	-1.141875701234551e-002
	-1.141875701234551e-002
120		5.044468749838406e-003
	1.134891188962034e+002
	-1.134891188962034e-002
	-1.134891188962034e-002
121		5.093296874838406e-003
	1.127522134235177e+002
	-1.127522134235177e-002
	-1.127522134235177e-002
122		5.142124999838405e-003
	1.119771033958017e+002
	-1.119771033958017e-002
	-1.119771033958017e-002
123		5.190953124838405e-003
	1.111640514485533e+002
	-1.111640514485533e-002
	-1.111640514485533e-002
124		5.239781249838405e-003
	1.103133330733741e+002
	-1.103133330733742e-002
	-1.103133330733742e-002
125		5.288609374838405e-003
	1.094252365246229e+002
	-1.094252365246229e-002
	-1.094252365246229e-002
126		5.337437499838405e-003
	1.085000627217444e+002
	-1.085000627217444e-002
	-1.085000627217444e-002
127		5.386265624838404e-003
	1.075381251473073e+002
	-1.075381251473073e-002
	-1.075381251473073e-002
128		5.435093749838404e-003
	1.065397497407841e+002
	-1.065397497407841e-002
	-1.065397497407841e-002
129		5.483921874838404e-003
	1.055052747881120e+002
	-1.055052747881120e-002
	-1.055052747881120e-002
130		5.532749999838404e-003
	1.044350508070684e+002
	-1.044350508070684e-002
	-1.044350508070684e-002
131		5.581578124838404e-003
	1.033294404285031e+002
	-1.033294404285031e-002
	-1.033294404285031e-002
132		5.630406249838404e-003
	1.021888182734659e+002
	-1.021888182734659e-002
	-1.021888182734659e-002
133		5.679234374838403e-003
	1.010135708262710e+002
	-1.010135708262710e-002
	-1.010135708262710e-002
134		5.728062499838403e-003
	9.980409630354242e+001
	-9.980409630354244e-003
	-9.980409630354244e-003
135		5.776890624838403e-003
	9.856080451928342e+001
	-9.856080451928343e-003
	-9.856080451928343e-003
136		5.825718749838403e-003
	9.728411674601674e+001
	-9.728411674601674e-003
	-9.728411674601674e-003
137		5.874546874838403e-003
	9.597446557204199e+001
	-9.597446557204200e-003
	-9.597446557204200e-003
138		5.923374999838403e-003
	9.463229475485923e+001
	-9.463229475485923e-003
	-9.463229475485923e-003
139		5.972203124838402e-003
	9.325805907080749e+001
	-9.325805907080750e-003
	-9.325805907080750e-003
140		6.021031249838402e-003
	9.185222416097025e+001
	-9.185222416097027e-003
	-9.185222416097027e-003
141		6.069859374838402e-003
	9.041526637339901e+001
	-9.041526637339901e-003
	-9.041526637339901e-003
142		6.118687499838402e-003
	8.894767260170954e+001
	-8.894767260170954e-003
	-8.894767260170954e-003
143		6.167515624838402e-003
	8.744994012010432e+001
	-8.744994012010432e-003
	-8.744994012010432e-003
144		6.216343749838402e-003
	8.592257641487814e+001
	-8.592257641487813e-003
	-8.592257641487813e-003
145		6.265171874838401e-003
	8.436609901246305e+001
	-8.436609901246306e-003
	-8.436609901246306e-003
146		6.313999999838401e-003
	8.278103530407184e+001
	-8.278103530407184e-003
	-8.278103530407184e-003
147		6.362828124838401e-003
	8.116792236699841e+001
	-8.116792236699841e-003
	-8.116792236699841e-003
148		6.411656249838401e-003
	7.952730678263671e+001
	-7.952730678263673e-003
	-7.952730678263673e-003
149		6.460484374838401e-003
	7.785974445127874e+001
	-7.785974445127875e-003
	-7.785974445127875e-003
150		6.509312499838400e-003
	7.616580040375564e+001
	-7.616580040375564e-003
	-7.616580040375564e-003
151		6.558140624838400e-003
	7.444604860998435e+001
	-7.444604860998435e-003
	-7.444604860998435e-003
152		6.606968749838400e-003
	7.270107178448599e+001
	-7.270107178448599e-003
	-7.270107178448599e-003
153		6.655796874838400e-003
	7.093146118894073e+001
	-7.093146118894073e-003
	-7.093146118894073e-003
154		6.704624999838400e-003
	6.913781643184700e+001
	-6.913781643184701e-003
	-6.913781643184701e-003
155		6.753453124838400e-003
	6.732074526535209e+001
	-6.732074526535209e-003
	-6.732074526535209e-003
156		6.802281249838399e-003
	6.548086337932385e+001
	-6.548086337932385e-003
	-6.548086337932385e-003
157		6.851109374838399e-003
	6.361879419273225e+001
	-6.361879419273225e-003
	-6.361879419273225e-003
158		6.899937499838399e-003
	6.173516864241266e+001
	-6.173516864241267e-003
	-6.173516864241267e-003
159		6.948765624838399e-003
	5.983062496928118e+001
	-5.983062496928118e-003
	-5.983062496928118e-003
160		6.997593749838399e-003
	5.790580850207561e+001
	-5.790580850207562e-003
	-5.790580850207562e-003
161		7.046421874838399e-003
	5.596137143869436e+001
	-5.596137143869437e-003
	-5.596137143869437e-003
162		7.095249999838398e-003
	5.399797262520837e+001
	-5.399797262520837e-003
	-5.399797262520837e-003
163		7.144078124838398e-003
	5.201627733261965e+001
	-5.201627733261965e-003
	-5.201627733261965e-003
164		7.192906249838398e-003
	5.001695703144369e+001
	-5.001695703144369e-003
	-5.001695703144369e-003
165		7.241734374838398e-003
	4.800068916419039e+001
	-4.800068916419039e-003
	-4.800068916419039e-003
166		7.290562499838398e-003
	4.596815691582227e+001
	-4.596815691582227e-003
	-4.596815691582227e-003
167		7.339390624838398e-003
	4.392004898226613e+001
	-4.392004898226613e-003
	-4.392004898226613e-003
168		7.388218749838397e-003
	4.185705933705820e+001
	-4.185705933705820e-003
	-4.185705933705820e-003
169		7.437046874838397e-003
	3.977988699620022e+001
	-3.977988699620022e-003
	-3.977988699620022e-003
170		7.485874999838397e-003
	3.768923578130780e+001
	-3.768923578130780e-003
	-3.768923578130780e-003
171		7.534703124838397e-003
	3.558581408112962e+001
	-3.558581408112962e-003
	-3.558581408112962e-003
172		7.583531249838397e-003
	3.347033461151992e+001
	-3.347033461151992e-003
	-3.347033461151992e-003
173		7.632359374838397e-003
	3.134351417394402e+001
	-3.134351417394402e-003
	-3.134351417394402e-003
174		7.681187499838396e-003
	2.920607341260031e+001
	-2.920607341260031e-003
	-2.920607341260031e-003
175		7.730015624838396e-003
	2.705873657023932e+001
	-2.705873657023932e-003
	-2.705873657023932e-003
176		7.778843749838396e-003
	2.490223124276435e+001
	-2.490223124276435e-003
	-2.490223124276435e-003
177		7.827671874838396e-003
	2.273728813269505e+001
	-2.273728813269505e-003
	-2.273728813269505e-003
178		7.876499999838397e-003
	2.056464080157917e+001
	-2.056464080157918e-003
	-2.056464080157918e-003
179		7.925328124838397e-003
	1.838502542143502e+001
	-1.838502542143502e-003
	-1.838502542143502e-003
180		7.974156249838398e-003
	1.619918052530959e+001
	-1.619918052530959e-003
	-1.619918052530959e-003
181		8.022984374838399e-003
	1.400784675703669e+001
	-1.400784675703669e-003
	-1.400784675703669e-003
182		8.071812499838399e-003
	1.181176662027983e+001
	-1.181176662027983e-003
	-1.181176662027983e-003
183		8.120640624838400e-003
	9.611684226945092e+000
	-9.611684226945093e-004
	-9.611684226945093e-004
184		8.169468749838401e-003
	7.408345045048678e+000
	-7.408345045048679e-004
	-7.408345045048679e-004
185		8.218296874838401e-003
	5.202495646125358e+000
	-5.202495646125358e-004
	-5.202495646125358e-004
186		8.267124999838402e-003
	2.994883452262779e+000
	-2.994883452262779e-004
	-2.994883452262779e-004
187		8.315953124838403e-003
	7.862564828478510e-001
	-7.862564828478511e-005
	-7.862564828478511e-005
188		8.364781249838403e-003
	-1.422636898889769e+000
	1.422636898889769e-004
	1.422636898889769e-004
189		8.413609374838404e-003
	-3.631048239450179e+000
	3.631048239450179e-004
	3.631048239450179e-004
190		8.462437499838405e-003
	-5.838229248666629e+000
	5.838229248666629e-004
	5.838229248666629e-004
191		8.511265624838406e-003
	-8.043432053253266e+000
	8.043432053253266e-004
	8.043432053253266e-004
192		8.560093749838406e-003
	-1.024590945021214e+001
	1.024590945021214e-003
	1.024590945021214e-003
193		8.608921874838407e-003
	-1.244491516001260e+001
	1.244491516001260e-003
	1.244491516001260e-003
194		8.657749999838408e-003
	-1.463970407945798e+001
	1.463970407945798e-003
	1.463970407945798e-003
195		8.706578124838408e-003
	-1.682953253415378e+001
	1.682953253415378e-003
	1.682953253415378e-003
196		8.755406249838409e-003
	-1.901365853049138e+001
	1.901365853049138e-003
	1.901365853049138e-003
197		8.804234374838410e-003
	-2.119134200706287e+001
	2.119134200706287e-003
	2.119134200706287e-003
198		8.853062499838410e-003
	-2.336184508542049e+001
	2.336184508542049e-003
	2.336184508542049e-003
199		8.901890624838411e-003
	-2.552443232009692e+001
	2.552443232009692e-003
	2.552443232009692e-003
200		8.950718749838412e-003
	-2.767837094780071e+001
	2.767837094780071e-003
	2.767837094780071e-003
201		8.999546874838412e-003
	-2.982293113570347e+001
	2.982293113570347e-003
	2.982293113570347e-003
202		9.048374999838413e-003
	-3.195738622873365e+001
	3.195738622873365e-003
	3.195738622873365e-003
203		9.097203124838414e-003
	-3.408101299579373e+001
	3.408101299579373e-003
	3.408101299579373e-003
204		9.146031249838415e-003
	-3.619309187481733e+001
	3.619309187481733e-003
	3.619309187481733e-003
205		9.194859374838415e-003
	-3.829290721658282e+001
	3.829290721658282e-003
	3.829290721658282e-003
206		9.243687499838416e-003
	-4.037974752720164e+001
	4.037974752720164e-003
	4.037974752720164e-003
207		9.292515624838417e-003
	-4.245290570919813e+001
	4.245290570919814e-003
	4.245290570919814e-003
208		9.341343749838417e-003
	-4.451167930110002e+001
	4.451167930110002e-003
	4.451167930110002e-003
209		9.390171874838418e-003
	-4.655537071545770e+001
	4.655537071545770e-003
	4.655537071545770e-003
210		9.438999999838419e-003
	-4.858328747521261e+001
	4.858328747521261e-003
	4.858328747521261e-003
211		9.487828124838419e-003
	-5.059474244833342e+001
	5.059474244833342e-003
	5.059474244833342e-003
212		9.536656249838420e-003
	-5.258905408064150e+001
	5.258905408064150e-003
	5.258905408064150e-003
213		9.585484374838421e-003
	-5.456554662674624e+001
	5.456554662674624e-003
	5.456554662674624e-003
214		9.634312499838421e-003
	-5.652355037901210e+001
	5.652355037901210e-003
	5.652355037901210e-003
215		9.683140624838422e-003
	-5.846240189448017e+001
	5.846240189448017e-003
	5.846240189448017e-003
216		9.731968749838423e-003
	-6.038144421966662e+001
	6.038144421966663e-003
	6.038144421966663e-003
217		9.780796874838424e-003
	-6.228002711316253e+001
	6.228002711316253e-003
	6.228002711316253e-003
218		9.829624999838424e-003
	-6.415750726595924e+001
	6.415750726595925e-003
	6.415750726595925e-003
219		9.878453124838425e-003
	-6.601324851942506e+001
	6.601324851942507e-003
	6.601324851942507e-003
220		9.927281249838426e-003
	-6.784662208085884e+001
	6.784662208085884e-003
	6.784662208085884e-003
221		9.976109374838426e-003
	-6.965700673654789e+001
	6.965700673654789e-003
	6.965700673654789e-003
222		1.002493749983843e-002
	-7.144378906225765e+001
	7.144378906225765e-003
	7.144378906225765e-003
223		1.007376562483843e-002
	-7.320636363108241e+001
	7.320636363108242e-003
	7.320636363108242e-003
224		1.012259374983843e-002
	-7.494413321858582e+001
	7.494413321858582e-003
	7.494413321858582e-003
225		1.017142187483843e-002
	-7.665650900516232e+001
	7.665650900516232e-003
	7.665650900516232e-003
226		1.022024999983843e-002
	-7.834291077555064e+001
	7.834291077555063e-003
	7.834291077555063e-003
227		1.026907812483843e-002
	-8.000276711543179e+001
	8.000276711543179e-003
	8.000276711543179e-003
228		1.031790624983843e-002
	-8.163551560504526e+001
	8.163551560504526e-003
	8.163551560504526e-003
229		1.036673437483843e-002
	-8.324060300975705e+001
	8.324060300975706e-003
	8.324060300975706e-003
230		1.041556249983843e-002
	-8.481748546751588e+001
	8.481748546751589e-003
	8.481748546751589e-003
231		1.046439062483843e-002
	-8.636562867313333e+001
	8.636562867313333e-003
	8.636562867313333e-003
232		1.051321874983843e-002
	-8.788450805932601e+001
	8.788450805932602e-003
	8.788450805932602e-003
233		1.056204687483844e-002
	-8.937360897445799e+001
	8.937360897445800e-003
	8.937360897445800e-003
234		1.061087499983844e-002
	-9.083242685692349e+001
	9.083242685692350e-003
	9.083242685692350e-003
235		1.065970312483844e-002
	-9.226046740611081e+001
	9.226046740611081e-003
	9.226046740611081e-003
236		1.070853124983844e-002
	-9.365724674988923e+001
	9.365724674988923e-003
	9.365724674988923e-003
237		1.075735937483844e-002
	-9.502229160856275e+001
	9.502229160856275e-003
	9.502229160856275e-003
238		1.080618749983844e-002
	-9.635513945523408e+001
	9.635513945523408e-003
	9.635513945523408e-003
239		1.085501562483844e-002
	-9.765533867252603e+001
	9.765533867252603e-003
	9.765533867252603e-003
240		1.090384374983844e-002
	-9.892244870560566e+001
	9.892244870560566e-003
	9.892244870560566e-003
241		1.095267187483844e-002
	-1.001560402114604e+002
	1.001560402114604e-002
	1.001560402114604e-002
242		1.100149999983844e-002
	-1.013556952043750e+002
	1.013556952043750e-002
	1.013556952043750e-002
243		1.105032812483844e-002
	-1.025210071975604e+002
	1.025210071975604e-002
	1.025210071975604e-002
244		1.109915624983844e-002
	-1.036515813408862e+002
	1.036515813408863e-002
	1.036515813408863e-002
245		1.114798437483844e-002
	-1.047470345546704e+002
	1.047470345546704e-002
	1.047470345546704e-002
246		1.119681249983844e-002
	-1.058069956594805e+002
	1.058069956594805e-002
	1.058069956594805e-002
247		1.124564062483844e-002
	-1.068311055019026e+002
	1.068311055019026e-002
	1.068311055019026e-002
248		1.129446874983845e-002
	-1.078190170762361e+002
	1.078190170762361e-002
	1.078190170762361e-002
249		1.134329687483845e-002
	-1.087703956420713e+002
	1.087703956420713e-002
	1.087703956420713e-002
250		1.139212499983845e-002
	-1.096849188377119e+002
	1.096849188377119e-002
	1.096849188377119e-002
251		1.144095312483845e-002
	-1.105622767894031e+002
	1.105622767894031e-002
	1.105622767894031e-002
252		1.148978124983845e-002
	-1.114021722163276e+002
	1.114021722163276e-002
	1.114021722163276e-002
253		1.153860937483845e-002
	-1.122043205313356e+002
	1.122043205313356e-002
	1.122043205313356e-002
254		1.158743749983845e-002
	-1.129684499373731e+002
	1.129684499373731e-002
	1.129684499373731e-002
255		1.163626562483845e-002
	-1.136943015195766e+002
	1.136943015195766e-002
	1.136943015195766e-002
256		1.168509374983845e-002
	-1.143816293330029e+002
	1.143816293330029e-002
	1.143816293330029e-002
257		1.173392187483845e-002
	-1.150302004859645e+002
	1.150302004859645e-002
	1.150302004859645e-002
258		1.178274999983845e-002
	-1.156397952189412e+002
	1.156397952189412e-002
	1.156397952189412e-002
259		1.183157812483845e-002
	-1.162102069790433e+002
	1.162102069790433e-002
	1.162102069790433e-002
260		1.188040624983845e-002
	-1.167412424899986e+002
	1.167412424899986e-002
	1.167412424899986e-002
261		1.192923437483845e-002
	-1.172327218176419e+002
	1.172327218176419e-002
	1.172327218176419e-002
262		1.197806249983846e-002
	-1.176844784308831e+002
	1.176844784308831e-002
	1.176844784308831e-002
263		1.202689062483846e-002
	-1.180963592581338e+002
	1.180963592581338e-002
	1.180963592581338e-002
264		1.207571874983846e-002
	-1.184682247391739e+002
	1.184682247391739e-002
	1.184682247391739e-002
265		1.212454687483846e-002
	-1.187999488724394e+002
	1.187999488724395e-002
	1.187999488724395e-002
266		1.217337499983846e-002
	-1.190914192577165e+002
	1.190914192577165e-002
	1.190914192577165e-002
267		1.222220312483846e-002
	-1.193425371342266e+002
	1.193425371342266e-002
	1.193425371342266e-002
268		1.227103124983846e-002
	-1.195532174140903e+002
	1.195532174140903e-002
	1.195532174140903e-002
269		1.231985937483846e-002
	-1.197233887111584e+002
	1.197233887111584e-002
	1.197233887111584e-002
270		1.236868749983846e-002
	-1.198529933651998e+002
	1.198529933651998e-002
	1.198529933651998e-002
271		1.241751562483846e-002
	-1.199419874614389e+002
	1.199419874614389e-002
	1.199419874614389e-002
272		1.246634374983846e-002
	-1.199903408454358e+002
	1.199903408454358e-002
	1.199903408454358e-002
273		1.251517187483846e-002
	-1.199980371333036e+002
	1.199980371333036e-002
	1.199980371333036e-002
274		1.256399999983846e-002
	-1.199650737172597e+002
	1.199650737172597e-002
	1.199650737172597e-002
275		1.261282812483846e-002
	-1.198914617665096e+002
	1.198914617665096e-002
	1.198914617665096e-002
276		1.266165624983846e-002
	-1.197772262234624e+002
	1.197772262234624e-002
	1.197772262234624e-002
277		1.271048437483847e-002
	-1.196224057952791e+002
	1.196224057952791e-002
	1.196224057952791e-002
278		1.275931249983847e-002
	-1.194270529407575e+002
	1.194270529407576e-002
	1.194270529407576e-002
279		1.280814062483847e-002
	-1.191912338525574e+002
	1.191912338525574e-002
	1.191912338525574e-002
280		1.285696874983847e-002
	-1.189150284347714e+002
	1.189150284347714e-002
	1.189150284347714e-002
281		1.290579687483847e-002
	-1.185985302758514e+002
	1.185985302758514e-002
	1.185985302758514e-002
282		1.295462499983847e-002
	-1.182418466168967e+002
	1.182418466168967e-002
	1.182418466168967e-002
283		1.300345312483847e-002
	-1.178450983153173e+002
	1.178450983153173e-002
	1.178450983153173e-002
284		1.305228124983847e-002
	-1.174084198038828e+002
	1.174084198038828e-002
	1.174084198038828e-002
285		1.310110937483847e-002
	-1.169319590451714e+002
	1.169319590451714e-002
	1.169319590451714e-002
286		1.314993749983847e-002
	-1.164158774814355e+002
	1.164158774814355e-002
	1.164158774814355e-002
287		1.319876562483847e-002
	-1.158603499798985e+002
	1.158603499798985e-002
	1.158603499798985e-002
288		1.324759374983847e-002
	-1.152655647735038e+002
	1.152655647735038e-002
	1.152655647735038e-002
289		1.329642187483847e-002
	-1.146317233971345e+002
	1.146317233971345e-002
	1.146317233971345e-002
290		1.334524999983847e-002
	-1.139590406193259e+002
	1.139590406193259e-002
	1.139590406193259e-002
291		1.339407812483848e-002
	-1.132477443694944e+002
	1.132477443694944e-002
	1.132477443694944e-002
292		1.344290624983848e-002
	-1.124980756607068e+002
	1.124980756607068e-002