Title: * Carga condensador
Date: Tue Jan 05 11:57:54 2021
Plotname: Transient Analysis
Flags: real forward
No. Variables: 7
No. Points:          268
Offset:   6.4000000000000004e+000
Command: Linear Technology Corporation LTspice XVII
Variables:
	0	time	time
	1	V(1)	voltage
	2	V(2)	voltage
	3	I(C2)	device_current
	4	I(C1)	device_current
	5	I(R1)	device_current
	6	I(V0)	device_current
Values:
0		0.000000000000000e+000
	0.000000000000000e+000
	0.000000000000000e+000
	0.000000000000000e+000
	0.000000000000000e+000
	0.000000000000000e+000
	0.000000000000000e+000
1		1.000000000000334e-003
	0.000000000000000e+000
	0.000000000000000e+000
	0.000000000000000e+000
	0.000000000000000e+000
	0.000000000000000e+000
	0.000000000000000e+000
2		3.000000000000114e-003
	0.000000000000000e+000
	0.000000000000000e+000
	0.000000000000000e+000
	0.000000000000000e+000
	0.000000000000000e+000
	0.000000000000000e+000
3		6.999999999999673e-003
	0.000000000000000e+000
	0.000000000000000e+000
	0.000000000000000e+000
	0.000000000000000e+000
	0.000000000000000e+000
	0.000000000000000e+000
4		1.339999999999986e-002
	0.000000000000000e+000
	0.000000000000000e+000
	0.000000000000000e+000
	0.000000000000000e+000
	0.000000000000000e+000
	0.000000000000000e+000
5		1.980000000000004e-002
	0.000000000000000e+000
	0.000000000000000e+000
	0.000000000000000e+000
	0.000000000000000e+000
	0.000000000000000e+000
	0.000000000000000e+000
6		2.620000000000022e-002
	0.000000000000000e+000
	0.000000000000000e+000
	0.000000000000000e+000
	0.000000000000000e+000
	0.000000000000000e+000
	0.000000000000000e+000
7		3.260000000000041e-002
	0.000000000000000e+000
	0.000000000000000e+000
	0.000000000000000e+000
	0.000000000000000e+000
	0.000000000000000e+000
	0.000000000000000e+000
8		3.900000000000059e-002
	0.000000000000000e+000
	0.000000000000000e+000
	0.000000000000000e+000
	0.000000000000000e+000
	0.000000000000000e+000
	0.000000000000000e+000
9		4.540000000000077e-002
	0.000000000000000e+000
	0.000000000000000e+000
	0.000000000000000e+000
	0.000000000000000e+000
	0.000000000000000e+000
	0.000000000000000e+000
10		5.180000000000096e-002
	0.000000000000000e+000
	0.000000000000000e+000
	0.000000000000000e+000
	0.000000000000000e+000
	0.000000000000000e+000
	0.000000000000000e+000
11		5.820000000000114e-002
	0.000000000000000e+000
	0.000000000000000e+000
	0.000000000000000e+000
	0.000000000000000e+000
	0.000000000000000e+000
	0.000000000000000e+000
12		6.460000000000132e-002
	0.000000000000000e+000
	0.000000000000000e+000
	0.000000000000000e+000
	0.000000000000000e+000
	0.000000000000000e+000
	0.000000000000000e+000
13		7.100000000000151e-002
	0.000000000000000e+000
	0.000000000000000e+000
	0.000000000000000e+000
	0.000000000000000e+000
	0.000000000000000e+000
	0.000000000000000e+000
14		7.740000000000169e-002
	0.000000000000000e+000
	0.000000000000000e+000
	0.000000000000000e+000
	0.000000000000000e+000
	0.000000000000000e+000
	0.000000000000000e+000
15		8.380000000000187e-002
	0.000000000000000e+000
	0.000000000000000e+000
	0.000000000000000e+000
	0.000000000000000e+000
	0.000000000000000e+000
	0.000000000000000e+000
16		9.020000000000206e-002
	0.000000000000000e+000
	0.000000000000000e+000
	0.000000000000000e+000
	0.000000000000000e+000
	0.000000000000000e+000
	0.000000000000000e+000
17		9.660000000000224e-002
	0.000000000000000e+000
	0.000000000000000e+000
	0.000000000000000e+000
	0.000000000000000e+000
	0.000000000000000e+000
	0.000000000000000e+000
18		9.999999999999965e-002
	0.000000000000000e+000
	0.000000000000000e+000
	0.000000000000000e+000
	0.000000000000000e+000
	0.000000000000000e+000
	0.000000000000000e+000
19		1.000068202471320e-001
	6.820247132388747e-003
	6.820042853171730e-003
	6.589413384720640e-007
	1.407738314008501e-006
	2.066679652476282e-006
	-2.066679652482084e-006
20		1.000204607413977e-001
	2.046074139805442e-002
	2.045972001420640e-002
	1.976784542444424e-006
	4.223130613403996e-006
	6.199915155820122e-006
	-6.199915155824520e-006
21		1.000308463514328e-001
	3.084635143313429e-002
	3.084416004030179e-002
	2.980112081190210e-006
	6.366603082542718e-006
	9.346715163727814e-006
	-9.346715163727204e-006
22		1.000411768585696e-001
	4.117685856996987e-002
	4.117303350535014e-002
	3.978070870069212e-006
	8.498605949693314e-006
	1.247667681980307e-005
	-1.247667681980591e-005
23		1.000618378728433e-001
	6.183787284364105e-002
	6.182937466917167e-002
	5.973852625050214e-006
	1.276232151715273e-005
	1.873617414217323e-005
	-1.873617414221984e-005
24		1.001031599013906e-001
	1.031599013909834e-001
	1.031364345694373e-001
	9.964872905234016e-006
	2.128859211572721e-005
	3.125346502104161e-005
	-3.125346502097504e-005
25		1.001858039584862e-001
	1.858039584865562e-001
	1.857280697620925e-001
	1.794474103979056e-005
	3.833649222137074e-005
	5.628123326124014e-005
	-5.628123326117951e-005
26		1.003510920726765e-001
	3.510920726768138e-001
	3.508214425007654e-001
	3.389579154595950e-005
	7.241373648454986e-005
	1.063095280305350e-004
	-1.063095280304793e-004
27		1.006816683010570e-001
	6.816683010573289e-001
	6.806489234432910e-001
	6.576318100902056e-005
	1.404940685192711e-004
	2.062572495282700e-004
	-2.062572495283299e-004
28		1.013428207578189e-001
	1.342820757819247e+000
	1.338869431321309e+000
	1.293593653450658e-004
	2.763586441462770e-004
	4.057180094913058e-004
	-4.057180094912960e-004
29		1.026651256713427e-001
	2.665125671343084e+000
	2.649593396241081e+000
	2.559993619556477e-004
	5.469077278143381e-004
	8.029070897700245e-004
	-8.029070897699886e-004
30		1.053097354983894e-001
	5.309735498389870e+000
	5.248338165270920e+000
	5.070858130696369e-004
	1.083319691557861e-003
	1.590405504627552e-003
	-1.590405504627468e-003
31		1.099999999999994e-001
	1.000000000000000e+001
	9.783783547745259e+000
	9.452930964004985e-004
	2.019489796855610e-003
	2.964782893256139e-003
	-2.964782893256135e-003
32		1.105289219654084e-001
	1.000000000000000e+001
	9.761109567696412e+000
	9.431023736905103e-004
	2.014809616520633e-003
	2.957911990211034e-003
	-2.957911990211226e-003
33		1.115867658962273e-001
	1.000000000000000e+001
	9.715866701782119e+000
	9.387310822978057e-004
	2.005470948545314e-003
	2.944202030843066e-003
	-2.944202030843224e-003
34		1.137024537578650e-001
	1.000000000000000e+001
	9.626008619134405e+000
	9.300491419453527e-004
	1.986923166883248e-003
	2.916972308828608e-003
	-2.916972308828592e-003
35		1.179338294811396e-001
	1.000000000000000e+001
	9.448774159807318e+000
	9.129250395948762e-004
	1.950339857316324e-003
	2.863264896911309e-003
	-2.863264896911244e-003
36		1.243338294811398e-001
	1.000000000000000e+001
	9.186876565079016e+000
	8.876209241622289e-004
	1.896281065255669e-003
	2.783901989417884e-003
	-2.783901989417886e-003
37		1.307338294811400e-001
	1.000000000000000e+001
	8.932238150109313e+000
	8.630181787545191e-004
	1.843720654611934e-003
	2.706738833366459e-003
	-2.706738833366446e-003
38		1.371338294811402e-001
	1.000000000000000e+001
	8.684657707663675e+000
	8.390973630592984e-004
	1.792617093808496e-003
	2.631714456867780e-003
	-2.631714456867773e-003
39		1.435338294811404e-001
	1.000000000000000e+001
	8.443939607494572e+000
	8.158395756033433e-004
	1.742930002425328e-003
	2.558769578028658e-003
	-2.558769578028669e-003
40		1.499338294811405e-001
	1.000000000000000e+001
	8.209893641760649e+000
	7.932264388174487e-004
	1.694620119291827e-003
	2.487846558109288e-003
	-2.487846558109269e-003
41		1.563338294811407e-001
	1.000000000000000e+001
	7.982334874730483e+000
	7.712400845150211e-004
	1.647649271463908e-003
	2.418889355978934e-003
	-2.418889355978920e-003
42		1.627338294811409e-001
	1.000000000000000e+001
	7.761083496652216e+000
	7.498631397731617e-004
	1.601980344060852e-003
	2.351843483834005e-003
	-2.351843483833993e-003
43		1.691338294811411e-001
	1.000000000000000e+001
	7.545964681673564e+000
	7.290787132051696e-004
	1.557577250938330e-003
	2.286655964143504e-003
	-2.286655964143486e-003
44		1.755338294811413e-001
	1.000000000000000e+001
	7.336808449699952e+000
	7.088703816135224e-004
	1.514404906174334e-003
	2.223275287787864e-003
	-2.223275287787846e-003
45		1.819338294811415e-001
	1.000000000000000e+001
	7.133449532081608e+000
	6.892221770127063e-004
	1.472429196345347e-003
	2.161651373358063e-003
	-2.161651373358053e-003
46		1.883338294811416e-001
	1.000000000000000e+001
	6.935727241023496e+000
	6.701185740119325e-004
	1.431616953570955e-003
	2.101735527582878e-003
	-2.101735527582860e-003
47		1.947338294811418e-001
	1.000000000000000e+001
	6.743485342614896e+000
	6.515444775473285e-004
	1.391935929305664e-003
	2.043480406852999e-003
	-2.043480406852954e-003
48		2.011338294811420e-001
	1.000000000000000e+001
	6.556571933378299e+000
	6.334852109544167e-004
	1.353354768857194e-003
	1.986839979811606e-003
	-1.986839979811611e-003
49		2.075338294811422e-001
	1.000000000000000e+001
	6.374839320240075e+000
	6.159265043710234e-004
	1.315842986610812e-003
	1.931769490981841e-003
	-1.931769490981838e-003
50		2.139338294811424e-001
	1.000000000000000e+001
	6.198143903828076e+000
	5.988544834616347e-004
	1.279370941940798e-003
	1.878225425402447e-003
	-1.878225425402419e-003
51		2.203338294811426e-001
	1.000000000000000e+001
	6.026346065003936e+000
	5.822556584544961e-004
	1.243909815789125e-003
	1.826165474243617e-003
	-1.826165474243607e-003
52		2.267338294811427e-001
	1.000000000000000e+001
	5.859310054540448e+000
	5.661169134821564e-004
	1.209431587893731e-003
	1.775548501375894e-003
	-1.775548501375873e-003
53		2.331338294811429e-001
	1.000000000000000e+001
	5.696903885856808e+000
	5.504254962180565e-004
	1.175909014647647e-003
	1.726334510865700e-003
	-1.726334510865707e-003
54		2.395338294811431e-001
	1.000000000000000e+001
	5.538999230726981e+000
	5.351690077997004e-004
	1.143315607572110e-003
	1.678484615371812e-003
	-1.678484615371817e-003
55		2.459338294811433e-001
	1.000000000000000e+001
	5.385471317878797e+000
	5.203353930317740e-004
	1.111625612386036e-003
	1.631961005417817e-003
	-1.631961005417792e-003
56		2.523338294811435e-001
	1.000000000000000e+001
	5.236198834403624e+000
	5.059129308602403e-004
	1.080813988656004e-003
	1.586726919516250e-003
	-1.586726919516251e-003
57		2.587338294811437e-001
	1.000000000000000e+001
	5.091063829898746e+000
	4.918902251110011e-004
	1.050856390009833e-003
	1.542746615120832e-003
	-1.542746615120827e-003
58		2.651338294811438e-001
	1.000000000000000e+001
	4.949951623266678e+000
	4.782561954846804e-004
	1.021729144899147e-003
	1.499985340383842e-003
	-1.499985340383814e-003
59		2.715338294811440e-001
	1.000000000000000e+001
	4.812750712097778e+000
	4.650000688017283e-004
	9.934092378945658e-004
	1.458409306696296e-003
	-1.458409306696273e-003
60		2.779338294811442e-001
	1.000000000000000e+001
	4.679352684564569e+000
	4.521113704893109e-004
	9.658742914999408e-004
	1.417985661989263e-003
	-1.417985661989224e-003
61		2.843338294811444e-001
	1.000000000000000e+001
	4.549652133758135e+000
	4.395799163051453e-004
	9.391025484700583e-004
	1.378682464775193e-003
	-1.378682464775183e-003
62		2.907338294811446e-001
	1.000000000000000e+001
	4.423546574398915e+000
	4.273958042897361e-004
	9.130728546190153e-004
	1.340468658908762e-003
	-1.340468658908744e-003
63		2.971338294811448e-001
	1.000000000000000e+001
	4.300936361856063e+000
	4.155494069426127e-004
	8.877646421046603e-004
	1.303314049047292e-003
	-1.303314049047266e-003
64		3.035338294811449e-001
	1.000000000000000e+001
	4.181724613411411e+000
	4.040313636146167e-004
	8.631579131767181e-004
	1.267189276791337e-003
	-1.267189276791342e-003
65		3.099338294811451e-001
	1.000000000000000e+001
	4.065817131705806e+000
	3.928325731116650e-004
	8.392332243749301e-004
	1.232065797486608e-003
	-1.232065797486609e-003
66		3.163338294811453e-001
	1.000000000000000e+001
	3.953122330307330e+000
	3.819441865031206e-004
	8.159716711657605e-004
	1.197915857668888e-003
	-1.197915857668874e-003
67		3.227338294811455e-001
	1.000000000000000e+001
	3.843551161342594e+000
	3.713576001297195e-004
	7.933548730043871e-004
	1.164712473134119e-003
	-1.164712473134100e-003
68		3.291338294811457e-001
	1.000000000000000e+001
	3.737017045133918e+000
	3.610644488052026e-004
	7.713649588111243e-004
	1.132429407616339e-003
	-1.132429407616320e-003
69		3.355338294811459e-001
	1.000000000000000e+001
	3.633435801786807e+000
	3.510565992064438e-004
	7.499845528501775e-004
	1.101041152056608e-003
	-1.101041152056587e-003
70		3.419338294811460e-001
	1.000000000000000e+001
	3.532725584673658e+000
	3.413261434467296e-004
	7.291967609998062e-004
	1.070522904446563e-003
	-1.070522904446536e-003
71		3.483338294811462e-001
	1.000000000000000e+001
	3.434806815761135e+000
	3.318653928271464e-004
	7.089851574034883e-004
	1.040850550230647e-003
	-1.040850550230649e-003
72		3.547338294811464e-001
	1.000000000000000e+001
	3.339602122730120e+000
	3.226668717613637e-004
	6.893337714901915e-004
	1.012000643251551e-003
	-1.012000643251548e-003
73		3.611338294811466e-001
	1.000000000000000e+001
	3.247036277838554e+000
	3.137233118684357e-004
	6.702270753553563e-004
	9.839503872238042e-004
	-9.839503872237920e-004
74		3.675338294811468e-001
	1.000000000000000e+001
	3.157036138478844e+000
	3.050276462298468e-004
	6.516499714910029e-004
	9.566776177208618e-004
	-9.566776177208358e-004
75		3.739338294811470e-001
	1.000000000000000e+001
	3.069530589382896e+000
	2.965730038050896e-004
	6.335877808563983e-004
	9.301607846614836e-004
	-9.301607846614601e-004
76		3.803338294811471e-001
	1.000000000000000e+001
	2.984450486429063e+000
	2.883527040028200e-004
	6.160262312787102e-004
	9.043789352815343e-004
	-9.043789352815024e-004
77		3.867338294811473e-001
	1.000000000000000e+001
	2.901728602006648e+000
	2.803602514015874e-004
	5.989514461761936e-004
	8.793116975777719e-004
	-8.793116975777671e-004
78		3.931338294811475e-001
	1.000000000000000e+001
	2.821299571894772e+000
	2.725893306178631e-004
	5.823499335926713e-004
	8.549392642105370e-004
	-8.549392642105136e-004
79		3.995338294811477e-001
	1.000000000000000e+001
	2.743099843613630e+000
	2.650338013153106e-004
	5.662085755373109e-004
	8.312423768526150e-004
	-8.312423768525867e-004
80		4.059338294811479e-001
	1.000000000000000e+001
	2.667067626207320e+000
	2.576876933533742e-004
	5.505146176185555e-004
	8.082023109719152e-004
	-8.082023109718950e-004
81		4.123338294811481e-001
	1.000000000000000e+001
	2.593142841418599e+000
	2.505452020694146e-004
	5.352556589665186e-004
	7.858008610359391e-004
	-7.858008610359124e-004
82		4.187338294811482e-001
	1.000000000000000e+001
	2.521267076216920e+000
	2.436006836924534e-004
	5.204196424338642e-004
	7.640203261263394e-004
	-7.640203261263245e-004
83		4.251338294811484e-001
	1.000000000000000e+001
	2.451383536642309e+000
	2.368486508833034e-004
	5.059948450689272e-004
	7.428434959522149e-004
	-7.428434959521890e-004
84		4.315338294811486e-001
	1.000000000000000e+001
	2.383437002928581e+000
	2.302837683988909e-004
	4.919698688521795e-004
	7.222536372510851e-004
	-7.222536372510635e-004
85		4.379338294811488e-001
	1.000000000000000e+001
	2.317373785870409e+000
	2.239008488763572e-004
	4.783336316904335e-004
	7.022344805667905e-004
	-7.022344805667768e-004
86		4.443338294811490e-001
	1.000000000000000e+001
	2.253141684399818e+000
	2.176948487342886e-004
	4.650753586595974e-004
	6.827702073938843e-004
	-6.827702073938513e-004
87		4.507338294811492e-001
	1.000000000000000e+001
	2.190689944338547e+000
	2.116608641872936e-004
	4.521845734910546e-004
	6.638454376783475e-004
	-6.638454376783343e-004
88		4.571338294811493e-001
	1.000000000000000e+001
	2.129969218293699e+000
	2.057941273713657e-004
	4.396510902933831e-004
	6.454452176647571e-004
	-6.454452176647418e-004
89		4.635338294811495e-001
	1.000000000000000e+001
	2.070931526664994e+000
	2.000900025763142e-004
	4.274650055039742e-004
	6.275550080803012e-004
	-6.275550080802883e-004
90		4.699338294811497e-001
	1.000000000000000e+001
	2.013530219732798e+000
	1.945439825828746e-004
	4.156166900634167e-004
	6.101606726463026e-004
	-6.101606726462705e-004
91		4.763338294811499e-001
	1.000000000000000e+001
	1.957719940796991e+000
	1.891516851011341e-004
	4.040967818070007e-004
	5.932484669081790e-004
	-5.932484669081417e-004
92		4.827338294811501e-001
	1.000000000000000e+001
	1.903456590337536e+000
	1.839088493079816e-004
	3.928961780670093e-004
	5.768050273750108e-004
	-5.768050273749770e-004
93		4.891338294811503e-001
	1.000000000000000e+001
	1.850697291168423e+000
	1.788113324800306e-004
	3.820060284801113e-004
	5.608173609601281e-004
	-5.608173609601141e-004
94		4.955338294811504e-001
	1.000000000000000e+001
	1.799400354557486e+000
	1.738551067205149e-004
	3.714177279938308e-004
	5.452728347143897e-004
	-5.452728347143387e-004
95		5.019338294811506e-001
	1.000000000000000e+001
	1.749525247285268e+000
	1.690362557763420e-004
	3.611229100676516e-004
	5.301591658440206e-004
	-5.301591658439797e-004
96		5.083338294811508e-001
	1.000000000000000e+001
	1.701032559616957e+000
	1.643509719436581e-004
	3.511134400614596e-004
	5.154644120051384e-004
	-5.154644120050900e-004
97		5.147338294811510e-001
	1.000000000000000e+001
	1.653883974162058e+000
	1.597955530591375e-004
	3.413814088081557e-004
	5.011769618672903e-004
	-5.011769618672723e-004
98		5.211338294811512e-001
	1.000000000000000e+001
	1.608042235597205e+000
	1.553663995746066e-004
	3.319191263639193e-004
	4.872855259385470e-004
	-4.872855259385189e-004
99		5.275338294811514e-001
	1.000000000000000e+001
	1.563471121228172e+000
	1.510600117128544e-004
	3.227191159320408e-004
	4.737791276449007e-004
	-4.737791276448744e-004
100		5.339338294811515e-001
	1.000000000000000e+001
	1.520135412367853e+000
	1.468729867021984e-004
	3.137741079546896e-004
	4.606470946569253e-004
	-4.606470946569019e-004
101		5.403338294811517e-001
	1.000000000000000e+001
	1.478000866507561e+000
	1.428020160876842e-004
	3.050770343691472e-004
	4.478790504568366e-004
	-4.478790504568175e-004
102		5.467338294811519e-001
	1.000000000000000e+001
	1.437034190259679e+000
	1.388438831168778e-004
	2.966210230224142e-004
	4.354649061392966e-004
	-4.354649061392713e-004
103		5.531338294811521e-001
	1.000000000000000e+001
	1.397203013050286e+000
	1.349954601980938e-004
	2.883993922414008e-004
	4.233948524394805e-004
	-4.233948524394460e-004
104		5.595338294811523e-001
	1.000000000000000e+001
	1.358475861540937e+000
	1.312537064290728e-004
	2.804056455530390e-004
	4.116593519821020e-004
	-4.116593519820910e-004
105		5.659338294811525e-001
	1.000000000000000e+001
	1.320822134759434e+000
	1.276156651941404e-004
	2.726334665511254e-004
	4.002491317452829e-004
	-4.002491317452450e-004
106		5.723338294811526e-001
	1.000000000000000e+001
	1.284212079919904e+000
	1.240784618280061e-004
	2.650767139052990e-004
	3.891551757333042e-004
	-3.891551757332912e-004
107		5.787338294811528e-001
	1.000000000000000e+001
	1.248616768913085e+000
	1.206393013442469e-004
	2.577294165082011e-004
	3.783687178524499e-004
	-3.783687178524342e-004
108		5.851338294811530e-001
	1.000000000000000e+001
	1.214008075448248e+000
	1.172954662268730e-004
	2.505857687574165e-004
	3.678812349843177e-004
	-3.678812349842964e-004
109		5.915338294811532e-001
	1.000000000000000e+001
	1.180358652828693e+000
	1.140443142829475e-004
	2.436401259681420e-004
	3.576844402511189e-004
	-3.576844402510826e-004
110		5.979338294811534e-001
	1.000000000000000e+001
	1.147641912343241e+000
	1.108832765549100e-004
	2.368869999127554e-004
	3.477702764676488e-004
	-3.477702764676238e-004
111		6.043338294811536e-001
	1.000000000000000e+001
	1.115832002256694e+000
	1.078098552904916e-004
	2.303210544842838e-004
	3.381309097747557e-004
	-3.381309097747198e-004
112		6.107338294811537e-001
	1.000000000000000e+001
	1.084903787382594e+000
	1.048216219693351e-004
	2.239371014799430e-004
	3.287587234492708e-004
	-3.287587234492573e-004
113		6.171338294811539e-001
	1.000000000000000e+001
	1.054832829222198e+000
	1.019162153837669e-004
	2.177300965017226e-004
	3.196463118855145e-004
	-3.196463118854964e-004
114		6.235338294811541e-001
	1.000000000000000e+001
	1.025595366653949e+000
	9.909133977332313e-005
	2.116951349702689e-004
	3.107864747436209e-004
	-3.107864747435851e-004
115		6.299338294811543e-001
	1.000000000000000e+001
	9.971682971581881e-001
	9.634476301042388e-005
	2.058274482496236e-004
	3.021722112600570e-004
	-3.021722112600267e-004
116		6.363338294811545e-001
	1.000000000000000e+001
	9.695291585622634e-001
	9.367431483695010e-005
	2.001223998789048e-004
	2.937967147158374e-004
	-2.937967147158271e-004
117		6.427338294811547e-001
	1.000000000000000e+001
	9.426561112916474e-001
	9.107788514892135e-005
	1.945754819091539e-004
	2.856533670580750e-004
	-2.856533670580475e-004
118		6.491338294811548e-001
	1.000000000000000e+001
	9.165279211129853e-001
	8.855342232977348e-005
	1.891823113408242e-004
	2.777357336706016e-004
	-2.777357336705977e-004
119		6.555338294811550e-001
	1.000000000000000e+001
	8.911239423554704e-001
	8.609893162851712e-005
	1.839386266609955e-004
	2.700375582895365e-004
	-2.700375582894987e-004
120		6.619338294811552e-001
	1.000000000000000e+001
	8.664241015972962e-001
	8.371247358429645e-005
	1.788402844754844e-004
	2.625527580597868e-004
	-2.625527580597531e-004
121		6.683338294811554e-001
	1.000000000000000e+001
	8.424088818042694e-001
	8.139216249314352e-005
	1.738832562354076e-004
	2.552754187285665e-004
	-2.552754187285233e-004
122		6.747338294811556e-001
	1.000000000000000e+001
	8.190593069080627e-001
	7.913616491865561e-005
	1.690636250534505e-004
	2.481997899721402e-004
	-2.481997899720922e-004
123		6.811338294811558e-001
	1.000000000000000e+001
	7.963569268119262e-001
	7.694269824269628e-005
	1.643775826093985e-004
	2.413202808520989e-004
	-2.413202808520809e-004
124		6.875338294811559e-001
	1.000000000000000e+001
	7.742838028120005e-001
	7.481002925718849e-005
	1.598214261403774e-004
	2.346314553975759e-004
	-2.346314553975382e-004
125		6.939338294811561e-001
	1.000000000000000e+001
	7.528224934227268e-001
	7.273647279444628e-005
	1.553915555154717e-004
	2.281280283099172e-004
	-2.281280283099041e-004
126		7.003338294811563e-001
	1.000000000000000e+001
	7.319560405951311e-001
	7.072039039567046e-005
	1.510844703907222e-004
	2.218048607864034e-004
	-2.218048607863787e-004
127		7.067338294811565e-001
	1.000000000000000e+001
	7.116679563171111e-001
	6.876018901613712e-005
	1.468967674436161e-004
	2.156569564597306e-004
	-2.156569564597255e-004
128		7.131338294811567e-001
	1.000000000000000e+001
	6.919422095851253e-001
	6.685431976666267e-005
	1.428251376833500e-004
	2.096794574500380e-004
	-2.096794574500127e-004
129		7.195338294811569e-001
	1.000000000000000e+001
	6.727632137370083e-001
	6.500127668955524e-005
	1.388663638368370e-004
	2.038676405263662e-004
	-2.038676405263507e-004
130		7.259338294811570e-001
	1.000000000000000e+001
	6.541158141358707e-001
	6.319959556869148e-005
	1.350173178058245e-004
	1.982169133745063e-004
	-1.982169133744882e-004
131		7.323338294811572e-001
	1.000000000000000e+001
	6.359852761953970e-001
	6.144785277249765e-005
	1.312749581958150e-004
	1.927228109683021e-004
	-1.927228109682710e-004
132		7.387338294811574e-001
	1.000000000000000e+001
	6.183572737370344e-001
	5.974466412916879e-005
	1.276363279123505e-004
	1.873809920415256e-004
	-1.873809920414915e-004
133		7.451338294811576e-001
	1.000000000000000e+001
	6.012178776698924e-001
	5.808868383283539e-005
	1.240985518247140e-004
	1.821872356575432e-004
	-1.821872356575494e-004
134		7.515338294811578e-001
	1.000000000000000e+001
	5.845535449844288e-001
	5.647860338013622e-005
	1.206588344939141e-004
	1.771374378740693e-004
	-1.771374378740365e-004
135		7.579338294811580e-001
	1.000000000000000e+001
	5.683511080511838e-001
	5.491315053633705e-005
	1.173144579640073e-004
	1.722276085003588e-004
	-1.722276085003305e-004
136		7.643338294811581e-001
	1.000000000000000e+001
	5.525977642161344e-001
	5.339108833003758e-005
	1.140627796142046e-004
	1.674538679442832e-004
	-1.674538679442561e-004
137		7.707338294811583e-001
	1.000000000000000e+001
	5.372810656844358e-001
	5.191121407578658e-005
	1.109012300710144e-004
	1.628124441467987e-004
	-1.628124441467593e-004
138		7.771338294811585e-001
	1.000000000000000e+001
	5.223889096845795e-001
	5.047235842363385e-005
	1.078273111777550e-004
	1.582996696013877e-004
	-1.582996696013750e-004
139		7.835338294811587e-001
	1.000000000000000e+001
	5.079095289051629e-001
	4.907338443524423e-005
	1.048385940208285e-004
	1.539119784561100e-004
	-1.539119784560727e-004
140		7.899338294811589e-001
	1.000000000000000e+001
	4.938314821967254e-001
	4.771318668568558e-005
	1.019327170103113e-004
	1.496459036959774e-004
	-1.496459036959552e-004
141		7.963338294811591e-001
	1.000000000000000e+001
	4.801436455313084e-001
	4.639069038950283e-005
	9.910738401394670e-005
	1.454980744034268e-004
	-1.454980744034218e-004
142		8.027338294811592e-001
	1.000000000000000e+001
	4.668352032126144e-001
	4.510485055195246e-005
	9.636036254279112e-005
	1.414652130947316e-004
	-1.414652130947158e-004
143		8.091338294811594e-001
	1.000000000000000e+001
	4.538956393297795e-001
	4.385465114294107e-005
	9.368948198729132e-005
	1.375441331302362e-004
	-1.375441331302185e-004
144		8.155338294811596e-001
	1.000000000000000e+001
	4.413147294480257e-001
	4.263910429451456e-005
	9.109263190185124e-005
	1.337317361963714e-004
	-1.337317361963519e-004
145		8.219338294811598e-001
	1.000000000000000e+001
	4.290825325296481e-001
	4.145724951973295e-005
	8.856776033772107e-005
	1.300250098574691e-004
	-1.300250098574263e-004
146		8.283338294811600e-001
	1.000000000000000e+001
	4.171893830789095e-001
	4.030815295449908e-005
	8.611287222090591e-005
	1.264210251754271e-004
	-1.264210251753772e-004
147		8.347338294811602e-001
	1.000000000000000e+001
	4.056258835046744e-001
	3.919090661878844e-005
	8.372602777656502e-005
	1.229169343953559e-004
	-1.229169343953118e-004
148		8.411338294811603e-001
	1.000000000000000e+001
	3.943828966947311e-001
	3.810462769998635e-005
	8.140534099540520e-005
	1.195099686953731e-004
	-1.195099686953638e-004
149		8.475338294811605e-001
	1.000000000000000e+001
	3.834515387959350e-001
	3.704845785464095e-005
	7.914897814409461e-005
	1.161974359987682e-004
	-1.161974359987217e-004
150		8.539338294811607e-001
	1.000000000000000e+001
	3.728231721944635e-001
	3.602156253086630e-005
	7.695515631592209e-005
	1.129767188468071e-004
	-1.129767188467745e-004
151		8.603338294811609e-001
	1.000000000000000e+001
	3.624893986906503e-001
	3.502313030824544e-005
	7.482214202225723e-005
	1.098452723305001e-004
	-1.098452723304888e-004
152		8.667338294811611e-001
	1.000000000000000e+001
	3.524420528629921e-001
	3.405237225731495e-005
	7.274824982239636e-005
	1.068006220796946e-004
	-1.068006220796836e-004
153		8.731338294811613e-001
	1.000000000000000e+001
	3.426731956160918e-001
	3.310852131555020e-005
	7.073184099237739e-005
	1.038403623079066e-004
	-1.038403623078998e-004
154		8.795338294811614e-001
	1.000000000000000e+001
	3.331751079074365e-001
	3.219083168190529e-005
	6.877132222943283e-005
	1.009621539113444e-004
	-1.009621539113104e-004
155		8.859338294811616e-001
	1.000000000000000e+001
	3.239402846480459e-001
	3.129857822682658e-005
	6.686514439377400e-005
	9.816372262061997e-005
	-9.816372262058670e-005
156		8.923338294811618e-001
	1.000000000000000e+001
	3.149614287721967e-001
	3.043105592005768e-005
	6.501180128365425e-005
	9.544285720369596e-005
	-9.544285720367030e-005
157		8.987338294811620e-001
	1.000000000000000e+001
	3.062314454715107e-001
	2.958757927255806e-005
	6.320982844607026e-005
	9.279740771863961e-005
	-9.279740771861444e-005
158		9.051338294811622e-001
	1.000000000000000e+001
	2.977434365888616e-001
	2.876748179606037e-005
	6.145780201874396e-005
	9.022528381480655e-005
	-9.022528381477657e-005
159		9.115338294811624e-001
	1.000000000000000e+001
	2.894906951676664e-001
	2.797011547508999e-005
	5.975433760602167e-005
	8.772445308111102e-005
	-8.772445308108390e-005
160		9.179338294811625e-001
	1.000000000000000e+001
	2.814667001522562e-001
	2.719485025629020e-005
	5.809808918377790e-005
	8.529293944007763e-005
	-8.529293944004035e-005
161		9.243338294811627e-001
	1.000000000000000e+001
	2.736651112351503e-001
	2.644107354922431e-005
	5.648774803715395e-005
	8.292882158640917e-005
	-8.292882158636439e-005
162		9.307338294811629e-001
	1.000000000000000e+001
	2.660797638471468e-001
	2.570818974372002e-005
	5.492204172508064e-005
	8.063023146883238e-005
	-8.063023146878678e-005
163		9.371338294811631e-001
	1.000000000000000e+001
	2.587046642862667e-001
	2.499561973774711e-005
	5.339973307627588e-005
	7.839535281402021e-005
	-7.839535281400911e-005
164		9.435338294811633e-001
	1.000000000000000e+001
	2.515339849817302e-001
	2.430280048136557e-005
	5.191961921008348e-005
	7.622241969143338e-005
	-7.622241969140742e-005
165		9.499338294811635e-001
	1.000000000000000e+001
	2.445620598891853e-001
	2.362918453029106e-005
	5.048053058759328e-005
	7.410971511793495e-005
	-7.410971511789821e-005
166		9.563338294811636e-001
	1.000000000000000e+001
	2.377833800135836e-001
	2.297423961487854e-005
	4.908133008624249e-005
	7.205556970108594e-005
	-7.205556970107940e-005
167		9.627338294811638e-001
	1.000000000000000e+001
	2.311925890561426e-001
	2.233744821794614e-005
	4.772091210208940e-005
	7.005836032004321e-005
	-7.005836032000778e-005
168		9.691338294811640e-001
	1.000000000000000e+001
	2.247844791819755e-001
	2.171830716737877e-005
	4.639820167565145e-005
	6.811650884302289e-005
	-6.811650884300247e-005
169		9.755338294811642e-001
	1.000000000000000e+001
	2.185539869050146e-001
	2.111632723714174e-005
	4.511215364311205e-005
	6.622848088030745e-005
	-6.622848088025379e-005
170		9.819338294811644e-001
	1.000000000000000e+001
	2.124961890870072e-001
	2.053103276206114e-005
	4.386175180975949e-005
	6.439278457182036e-005
	-6.439278457179287e-005
171		9.883338294811646e-001
	1.000000000000000e+001
	2.066062990474116e-001
	1.996196126058392e-005
	4.264600814771202e-005
	6.260796940830654e-005