Title: * Circuito en corriente alterna
Date: Mon Dec 21 10:32:37 2020
Plotname: Transient Analysis
Flags: real forward
No. Variables: 4
No. Points:         1532
Offset:   0.0000000000000000e+000
Command: Linear Technology Corporation LTspice XVII
Variables:
	0	time	time
	1	V(1)	voltage
	2	I(R1)	device_current
	3	I(V1)	device_current
Values:
0		0.000000000000000e+000
	0.000000000000000e+000
	0.000000000000000e+000
	0.000000000000000e+000
1		9.999999717180685e-010
	4.523893293224751e-005
	-4.523893293224751e-009
	-4.523893293224751e-009
2		1.999999943436137e-009
	9.047786586448858e-005
	-9.047786586448858e-009
	-9.047786586448858e-009
3		3.999999886872274e-009
	1.809557317289258e-004
	-1.809557317289258e-008
	-1.809557317289258e-008
4		7.999999773744548e-009
	3.619114634574400e-004
	-3.619114634574400e-008
	-3.619114634574400e-008
5		1.599999954748910e-008
	7.238229269115881e-004
	-7.238229269115881e-008
	-7.238229269115881e-008
6		3.199999909497819e-008
	1.447645853796841e-003
	-1.447645853796841e-007
	-1.447645853796841e-007
7		6.399999818995639e-008
	2.895291707383002e-003
	-2.895291707383002e-007
	-2.895291707383002e-007
8		1.279999963799128e-007
	5.790583413080560e-003
	-5.790583413080560e-007
	-5.790583413080560e-007
9		2.559999927598256e-007
	1.158116681267756e-002
	-1.158116681267756e-006
	-1.158116681267756e-006
10		5.119999855196511e-007
	2.316233351748667e-002
	-2.316233351748667e-006
	-2.316233351748667e-006
11		1.023999971039302e-006
	4.632466617202570e-002
	-4.632466617202570e-006
	-4.632466617202570e-006
12		2.047999942078604e-006
	9.264932544047048e-002
	-9.264932544047049e-006
	-9.264932544047049e-006
13		4.095999884157209e-006
	1.852985956522999e-001
	-1.852985956522999e-005
	-1.852985956522999e-005
14		8.191999768314418e-006
	3.705967494756683e-001
	-3.705967494756684e-005
	-3.705967494756684e-005
15		1.638399953662884e-005
	7.411899643262070e-001
	-7.411899643262070e-005
	-7.411899643262070e-005
16		3.276799907325767e-005
	1.482351651853648e+000
	-1.482351651853649e-004
	-1.482351651853649e-004
17		6.553599814651534e-005
	2.964477095789782e+000
	-2.964477095789782e-004
	-2.964477095789782e-004
18		1.310719962930307e-004
	5.927144735351116e+000
	-5.927144735351117e-004
	-5.927144735351117e-004
19		2.621439925860614e-004
	1.183982044693109e+001
	-1.183982044693110e-003
	-1.183982044693110e-003
20		5.242879851721227e-004
	2.356410054343871e+001
	-2.356410054343871e-003
	-2.356410054343871e-003
21		1.048575970344245e-003
	4.621063236919231e+001
	-4.621063236919232e-003
	-4.621063236919232e-003
22		2.025138470344245e-003
	8.297096198657587e+001
	-8.297096198657587e-003
	-8.297096198657587e-003
23		3.001700970344245e-003
	1.086119877225400e+002
	-1.086119877225400e-002
	-1.086119877225400e-002
24		3.381192902803342e-003
	1.147772275500811e+002
	-1.147772275500811e-002
	-1.147772275500811e-002
25		3.662058535423920e-003
	1.178352294271444e+002
	-1.178352294271444e-002
	-1.178352294271444e-002
26		3.947947284981324e-003
	1.195922988339504e+002
	-1.195922988339504e-002
	-1.195922988339504e-002
27		4.335217055484944e-003
	1.197578263567894e+002
	-1.197578263567894e-002
	-1.197578263567894e-002
28		4.691049136894388e-003
	1.176628047678699e+002
	-1.176628047678699e-002
	-1.176628047678699e-002
29		5.268386521764483e-003
	1.097975697333844e+002
	-1.097975697333844e-002
	-1.097975697333844e-002
30		6.190886131751432e-003
	8.672256665499359e+001
	-8.672256665499359e-003
	-8.672256665499359e-003
31		7.167448631751432e-003
	5.106150426957837e+001
	-5.106150426957837e-003
	-5.106150426957837e-003
32		8.144011131751432e-003
	8.557464907378208e+000
	-8.557464907378208e-004
	-8.557464907378208e-004
33		9.120573631751432e-003
	-3.509339799984862e+001
	3.509339799984862e-003
	3.509339799984862e-003
34		1.009713613175143e-002
	-7.404124014837863e+001
	7.404124014837863e-003
	7.404124014837863e-003
35		1.107369863175143e-002
	-1.030664897506130e+002
	1.030664897506130e-002
	1.030664897506130e-002
36		1.160492598633855e-002
	-1.132328367701191e+002
	1.132328367701191e-002
	1.132328367701191e-002
37		1.191353248123832e-002
	-1.170789997709088e+002
	1.170789997709088e-002
	1.170789997709088e-002
38		1.218176977668898e-002
	-1.191374676751867e+002
	1.191374676751867e-002
	1.191374676751867e-002
39		1.244068992893344e-002
	-1.199700047640099e+002
	1.199700047640099e-002
	1.199700047640099e-002
40		1.272795244061611e-002
	-1.195571723889449e+002
	1.195571723889449e-002
	1.195571723889449e-002
41		1.312100295991804e-002
	-1.167264699790772e+002
	1.167264699790772e-002
	1.167264699790772e-002
42		1.375763610177959e-002
	-1.067635094724909e+002
	1.067635094724910e-002
	1.067635094724910e-002
43		1.473419860177959e-002
	-7.989222085293537e+001
	7.989222085293537e-003
	7.989222085293537e-003
44		1.571076110177959e-002
	-4.231422400491550e+001
	4.231422400491551e-003
	4.231422400491551e-003
45		1.668732360177959e-002
	9.344882832028685e-001
	-9.344882832028685e-005
	-9.344882832028685e-005
46		1.766388610177959e-002
	4.405796568256292e+001
	-4.405796568256293e-003
	-4.405796568256293e-003
47		1.864044860177959e-002
	8.127704114307574e+001
	-8.127704114307573e-003
	-8.127704114307573e-003
48		1.961701110177959e-002
	1.076038225116059e+002
	-1.076038225116059e-002
	-1.076038225116059e-002
49		2.001745154234206e-002
	1.143682758306655e+002
	-1.143682758306655e-002
	-1.143682758306655e-002
50		2.030595963927823e-002
	1.176361528285164e+002
	-1.176361528285165e-002
	-1.176361528285165e-002
51		2.058714912110030e-002
	1.194835573191811e+002
	-1.194835573191811e-002
	-1.194835573191811e-002
52		2.093653781712103e-002
	1.199091853666452e+002
	-1.199091853666452e-002
	-1.199091853666452e-002
53		2.125136674785367e-002
	1.185129127620927e+002
	-1.185129127620927e-002
	-1.185129127620927e-002
54		2.176293900193622e-002
	1.127060707264476e+002
	-1.127060707264476e-002
	-1.127060707264476e-002
55		2.258514464176556e-002
	9.476835675972211e+001
	-9.476835675972212e-003
	-9.476835675972212e-003
56		2.356170714176556e-002
	6.192503382554354e+001
	-6.192503382554354e-003
	-6.192503382554354e-003
57		2.453826964176556e-002
	2.078286449393717e+001
	-2.078286449393718e-003
	-2.078286449393718e-003
58		2.551483214176556e-002
	-2.314450800154022e+001
	2.314450800154022e-003
	2.314450800154022e-003
59		2.649139464176556e-002
	-6.397018308995721e+001
	6.397018308995721e-003
	6.397018308995721e-003
60		2.746795714176556e-002
	-9.622293232459953e+001
	9.622293232459953e-003
	9.622293232459953e-003
61		2.816611133523086e-002
	-1.115639276148277e+002
	1.115639276148277e-002
	1.115639276148277e-002
62		2.850195819087114e-002
	-1.162519782212628e+002
	1.162519782212628e-002
	1.162519782212628e-002
63		2.875284861664615e-002
	-1.185426919796351e+002
	1.185426919796351e-002
	1.185426919796351e-002
64		2.905810714591783e-002
	-1.198995178997742e+002
	1.198995178997742e-002
	1.198995178997742e-002
65		2.937629806487192e-002
	-1.196254583650467e+002
	1.196254583650467e-002
	1.196254583650467e-002
66		2.975787629272457e-002
	-1.170317675571389e+002
	1.170317675571389e-002
	1.170317675571389e-002
67		3.037627638891646e-002
	-1.077378934402575e+002
	1.077378934402575e-002
	1.077378934402575e-002
68		3.135283888891646e-002
	-8.150018799122989e+001
	8.150018799122990e-003
	8.150018799122990e-003
69		3.232940138891646e-002
	-4.434028355873253e+001
	4.434028355873253e-003
	4.434028355873253e-003
70		3.330596388891646e-002
	-1.238142525945753e+000
	1.238142525945753e-004
	1.238142525945753e-004
71		3.428252638891646e-002
	4.202992743745564e+001
	-4.202992743745564e-003
	-4.202992743745564e-003
72		3.525908888891646e-002
	7.966538179533137e+001
	-7.966538179533137e-003
	-7.966538179533137e-003
73		3.623565138891646e-002
	1.066245276254727e+002
	-1.066245276254728e-002
	-1.066245276254728e-002
74		3.666611821212375e-002
	1.141191123411292e+002
	-1.141191123411292e-002
	-1.141191123411292e-002
75		3.695916941353272e-002
	1.175144015378195e+002
	-1.175144015378195e-002
	-1.175144015378195e-002
76		3.723761315374585e-002
	1.194133981085497e+002
	-1.194133981085497e-002
	-1.194133981085497e-002
77		3.753987762509681e-002
	1.199864398691414e+002
	-1.199864398691414e-002
	-1.199864398691414e-002
78		3.781493253211955e-002
	1.191552303063167e+002
	-1.191552303063167e-002
	-1.191552303063167e-002
79		3.826234592276775e-002
	1.150781735973314e+002
	-1.150781735973314e-002
	-1.150781735973314e-002
80		3.898477519957659e-002
	1.016867328595467e+002
	-1.016867328595467e-002
	-1.016867328595467e-002
81		3.996133769957659e-002
	7.194169224621233e+001
	-7.194169224621233e-003
	-7.194169224621233e-003
82		4.093790019957659e-002
	3.255542874385542e+001
	-3.255542874385542e-003
	-3.255542874385542e-003
83		4.191446269957659e-002
	-1.119373108422315e+001
	1.119373108422316e-003
	1.119373108422316e-003
84		4.289102519957659e-002
	-5.344276973120117e+001
	5.344276973120118e-003
	5.344276973120118e-003
85		4.386758769957659e-002
	-8.852970753376435e+001
	8.852970753376436e-003
	8.852970753376436e-003
86		4.472480436918389e-002
	-1.096729153311607e+002
	1.096729153311607e-002
	1.096729153311607e-002
87		4.508914199610775e-002
	-1.153082785745695e+002
	1.153082785745695e-002
	1.153082785745695e-002
88		4.535969506061376e-002
	-1.180921119706542e+002
	1.180921119706542e-002
	1.180921119706542e-002
89		4.565208179440984e-002
	-1.197199678407319e+002
	1.197199678407319e-002
	1.197199678407319e-002
90		4.601587689486229e-002
	-1.197159628637908e+002
	1.197159628637908e-002
	1.197159628637908e-002
91		4.638048188910738e-002
	-1.174561961798657e+002
	1.174561961798657e-002
	1.174561961798657e-002
92		4.697183279868816e-002
	-1.091156655725115e+002
	1.091156655725115e-002
	1.091156655725115e-002
93		4.791541163791591e-002
	-8.489295105339427e+001
	8.489295105339427e-003
	8.489295105339427e-003
94		4.889197413791591e-002
	-4.868085755789785e+001
	4.868085755789784e-003
	4.868085755789784e-003
95		4.986853663791591e-002
	-5.944828031842472e+000
	5.944828031842472e-004
	5.944828031842472e-004
96		5.084509913791591e-002
	3.758789406985800e+001
	-3.758789406985800e-003
	-3.758789406985800e-003
97		5.182166163791591e-002
	7.608329701292382e+001
	-7.608329701292382e-003
	-7.608329701292382e-003
98		5.279822413791591e-002
	1.043824423794667e+002
	-1.043824423794667e-002
	-1.043824423794667e-002
99		5.329355492414658e-002
	1.135578842103958e+002
	-1.135578842103958e-002
	-1.135578842103958e-002
100		5.359655846223910e-002
	1.172390684289859e+002
	-1.172390684289859e-002
	-1.172390684289859e-002
101		5.386876880689535e-002
	1.192440523021088e+002
	-1.192440523021088e-002
	-1.192440523021088e-002
102		5.414347682081984e-002
	1.199954142914920e+002
	-1.199954142914920e-002
	-1.199954142914920e-002
103		5.440804724508783e-002
	1.195035009451602e+002
	-1.195035009451602e-002
	-1.195035009451602e-002
104		5.480950190832862e-002
	1.164933995457269e+002
	-1.164933995457269e-002
	-1.164933995457269e-002
105		5.545946522220369e-002
	1.060279054013378e+002
	-1.060279054013378e-002
	-1.060279054013378e-002
106		5.643602772220369e-002
	7.869831339257085e+001
	-7.869831339257085e-003
	-7.869831339257085e-003
107		5.741259022220369e-002
	4.082201395007840e+001
	-4.082201395007840e-003
	-4.082201395007840e-003
108		5.838915272220369e-002
	-2.525023293862456e+000
	2.525023293862456e-004
	2.525023293862456e-004
109		5.936571522220369e-002
	-4.553367105020529e+001
	4.553367105020529e-003
	4.553367105020529e-003
110		6.034227772220369e-002
	-8.244015109484026e+001
	8.244015109484026e-003
	8.244015109484026e-003
111		6.131884022220369e-002
	-1.082984635624623e+002
	1.082984635624623e-002
	1.082984635624623e-002
112		6.170271532813074e-002
	-1.146201734862382e+002
	1.146201734862382e-002
	1.146201734862382e-002
113		6.198654463646765e-002
	-1.177588938905111e+002
	1.177588938905111e-002
	1.177588938905111e-002
114		6.227059917478978e-002
	-1.195515306747120e+002
	1.195515306747120e-002
	1.195515306747120e-002
115		6.262392668018578e-002
	-1.198690624761483e+002
	1.198690624761484e-002
	1.198690624761484e-002
116		6.295176378688466e-002
	-1.182638537406105e+002
	1.182638537406105e-002
	1.182638537406105e-002
117		6.348424511015682e-002
	-1.118335838216207e+002
	1.118335838216207e-002
	1.118335838216207e-002
118		6.433857132306452e-002
	-9.231036428908453e+001
	9.231036428908454e-003
	9.231036428908454e-003
119		6.531513382306452e-002
	-5.853056101698334e+001
	5.853056101698334e-003
	5.853056101698334e-003
120		6.629169632306452e-002
	-1.690681959212099e+001
	1.690681959212099e-003
	1.690681959212099e-003
121		6.726825882306452e-002
	2.698267915568943e+001
	-2.698267915568943e-003
	-2.698267915568943e-003
122		6.824482132306452e-002
	6.725611028317425e+001
	-6.725611028317425e-003
	-6.725611028317425e-003
123		6.922138382306452e-002
	9.851625398798339e+001
	-9.851625398798339e-003
	-9.851625398798339e-003
124		6.986680245774957e-002
	1.121216624016861e+002
	-1.121216624016861e-002
	-1.121216624016861e-002
125		7.019380110937692e-002
	1.165291679334810e+002
	-1.165291679334810e-002
	-1.165291679334810e-002
126		7.044908907841925e-002
	1.187431926725631e+002
	-1.187431926725631e-002
	-1.187431926725631e-002
127		7.076588662853710e-002
	1.199612107339468e+002
	-1.199612107339468e-002
	-1.199612107339468e-002
128		7.105826007675338e-002
	1.195688430024173e+002
	-1.195688430024173e-002
	-1.195688430024173e-002
129		7.144941641728979e-002
	1.167779009246700e+002
	-1.167779009246700e-002
	-1.167779009246700e-002
130		7.208304197408895e-002
	1.069267662072695e+002
	-1.069267662072695e-002
	-1.069267662072695e-002
131		7.305960447408895e-002
	8.015945835928308e+001
	-8.015945835928308e-003
	-8.015945835928308e-003
132		7.403616697408895e-002
	4.264962860813894e+001
	-4.264962860813894e-003
	-4.264962860813894e-003
133		7.501272947408895e-002
	-5.758656305436691e-001
	5.758656305436692e-005
	5.758656305436692e-005
134		7.598929197408895e-002
	-4.372418558092628e+001
	4.372418558092628e-003
	4.372418558092628e-003
135		7.696585447408895e-002
	-8.101283493329223e+001
	8.101283493329224e-003
	8.101283493329224e-003
136		7.794241697408895e-002
	-1.074445976309718e+002
	1.074445976309718e-002
	1.074445976309718e-002
137		7.834781737301882e-002
	-1.143275606553255e+002
	1.143275606553255e-002
	1.143275606553255e-002
138		7.863707345955459e-002
	-1.176162801865890e+002
	1.176162801865890e-002
	1.176162801865890e-002
139		7.891780841010122e-002
	-1.194722854980965e+002
	1.194722854980965e-002
	1.194722854980965e-002
140		7.923056414979043e-002
	-1.199651855137310e+002
	1.199651855137311e-002
	1.199651855137311e-002
141		7.952070823984199e-002
	-1.189327228981297e+002
	1.189327228981297e-002
	1.189327228981297e-002
142		7.999249923812790e-002
	-1.142311831836473e+002
	1.142311831836473e-002
	1.142311831836473e-002
143		8.075304330546027e-002
	-9.917221827660264e+001
	9.917221827660264e-003
	9.917221827660264e-003
144		8.172960580546027e-002
	-6.821107843602567e+001
	6.821107843602568e-003
	6.821107843602568e-003
145		8.270616830546027e-002
	-2.810867168652437e+001
	2.810867168652437e-003
	2.810867168652437e-003
146		8.368273080546027e-002
	1.576070189935135e+001
	-1.576070189935135e-003
	-1.576070189935135e-003
147		8.465929330546027e-002
	5.751791443987598e+001
	-5.751791443987598e-003
	-5.751791443987598e-003
148		8.563585580546027e-002
	9.156689805344254e+001
	-9.156689805344254e-003
	-9.156689805344254e-003
149		8.643319116800381e-002
	1.104253044415794e+002
	-1.104253044415795e-002
	-1.104253044415795e-002
150		8.678644393877613e-002
	1.156843204446670e+002
	-1.156843204446670e-002
	-1.156843204446670e-002
151		8.704938922402175e-002
	1.182726832701749e+002
	-1.182726832701749e-002
	-1.182726832701749e-002
152		8.734668256485446e-002
	1.197996101736310e+002
	-1.197996101736310e-002
	-1.197996101736310e-002
153		8.769296112227226e-002
	1.196826331245288e+002
	-1.196826331245288e-002
	-1.196826331245288e-002
154		8.806409526921143e-002
	1.172967819330471e+002
	-1.172967819330471e-002
	-1.172967819330471e-002
155		8.866586135687539e-002
	1.085947530090584e+002
	-1.085947530090584e-002
	-1.085947530090584e-002
156		8.962503564238382e-002
	8.350837765985160e+001
	-8.350837765985161e-003
	-8.350837765985161e-003
157		9.060159814238382e-002
	4.689830034096534e+001
	-4.689830034096534e-003
	-4.689830034096534e-003
158		9.157816064238382e-002
	4.003175331566556e+000
	-4.003175331566556e-004
	-4.003175331566556e-004
159		9.255472314238382e-002
	-3.942843282731561e+001
	3.942843282731561e-003
	3.942843282731561e-003
160		9.353128564238382e-002
	-7.757606312601669e+001
	7.757606312601670e-003
	7.757606312601670e-003
161		9.450784814238382e-002
	-1.053273836897292e+002
	1.053273836897292e-002
	1.053273836897292e-002
162		9.497645104670456e-002
	-1.137930839583865e+002
	1.137930839583865e-002
	1.137930839583865e-002
163		9.527532871436301e-002
	-1.173546268989307e+002
	1.173546268989307e-002
	1.173546268989307e-002
164		9.555030389124823e-002
	-1.193175597245172e+002
	1.193175597245172e-002
	1.193175597245172e-002
165		9.580232668314340e-002
	-1.199918018050377e+002
	1.199918018050378e-002
	1.199918018050378e-002
166		9.607180829237101e-002
	-1.195153742154912e+002
	1.195153742154912e-002
	1.195153742154912e-002
167		9.647144476424056e-002
	-1.165444981321555e+002
	1.165444981321555e-002
	1.165444981321555e-002
168		9.711852611919757e-002
	-1.061886029168866e+002
	1.061886029168866e-002
	1.061886029168866e-002
169		9.809508861919757e-002
	-7.895773935965379e+001
	7.895773935965378e-003
	7.895773935965378e-003
170		9.907165111919757e-002
	-4.114540155276849e+001
	4.114540155276849e-003
	4.114540155276849e-003
171		1.000482136191976e-001
	2.181012651861154e+000
	-2.181012651861155e-004
	-2.181012651861155e-004
172		1.010247761191976e-001
	4.521513974947552e+001
	-4.521513974947552e-003
	-4.521513974947552e-003
173		1.020013386191976e-001
	8.218978691727364e+001
	-8.218978691727365e-003
	-8.218978691727365e-003
174		1.029779011191976e-001
	1.081498189136798e+002
	-1.081498189136798e-002
	-1.081498189136798e-002
175		1.033638402916713e-001
	1.145456999437785e+002
	-1.145456999437785e-002
	-1.145456999437785e-002
176		1.036490622394059e-001
	1.177226437310951e+002
	-1.177226437310951e-002
	-1.177226437310951e-002
177		1.039322600608127e-001
	1.195317578114391e+002
	-1.195317578114391e-002
	-1.195317578114391e-002
178		1.042844132343130e-001
	1.198817942270695e+002
	-1.198817942270695e-002
	-1.198817942270695e-002
179		1.046083712910398e-001
	1.183401317388966e+002
	-1.183401317388966e-002
	-1.183401317388966e-002
180		1.051346216820864e-001
	1.120986869306249e+002
	-1.120986869306249e-002
	-1.120986869306249e-002
181		1.059793977429554e-001
	9.305288888956304e+001
	-9.305288888956305e-003
	-9.305288888956305e-003
182		1.069559602429554e-001
	5.954826928034422e+001
	-5.954826928034423e-003
	-5.954826928034423e-003
183		1.079325227429554e-001
	1.806332395370240e+001
	-1.806332395370240e-003
	-1.806332395370240e-003
184		1.089090852429554e-001
	-2.584236693669666e+001
	2.584236693669666e-003
	2.584236693669666e-003
185		1.098856477429554e-001
	-6.628480846726905e+001
	6.628480846726905e-003
	6.628480846726905e-003
186		1.108622102429554e-001
	-9.784413100750659e+001
	9.784413100750660e-003
	9.784413100750660e-003
187		1.115233822099988e-001
	-1.119582356445261e+002
	1.119582356445261e-002
	1.119582356445261e-002
188		1.118529977559617e-001
	-1.164480173935423e+002
	1.164480173935423e-002
	1.164480173935423e-002
189		1.121064549327963e-001
	-1.186817260733244e+002
	1.186817260733244e-002
	1.186817260733244e-002
190		1.124210427493733e-001
	-1.199468423888466e+002
	1.199468423888466e-002
	1.199468423888466e-002
191		1.127206457274013e-001
	-1.195850898061652e+002
	1.195850898061652e-002
	1.195850898061652e-002
192		1.131091217081060e-001
	-1.168499867149965e+002
	1.168499867149965e-002
	1.168499867149965e-002
193		1.137384894317394e-001
	-1.071561800749190e+002
	1.071561800749190e-002
	1.071561800749190e-002
194		1.147150519317394e-001
	-8.053643768014109e+001
	8.053643768014110e-003
	8.053643768014110e-003
195		1.156916144317394e-001
	-4.312365272382915e+001
	4.312365272382915e-003
	4.312365272382915e-003
196		1.166681769317394e-001
	6.832277857499862e-002
	-6.832277857499862e-006
	-6.832277857499862e-006
197		1.176447394317394e-001
	4.325114204464365e+001
	-4.325114204464365e-003
	-4.325114204464365e-003
198		1.186213019317394e-001
	8.063768535948614e+001
	-8.063768535948614e-003
	-8.063768535948614e-003
199		1.195978644317394e-001
	1.072176174655610e+002
	-1.072176174655610e-002
	-1.072176174655610e-002
200		1.200102819476754e-001
	1.142696617323560e+002
	-1.142696617323560e-002
	-1.142696617323560e-002
201		1.203005978824727e-001
	1.175880049681067e+002
	-1.175880049681068e-002
	-1.175880049681068e-002
202		1.205806904546354e-001
	1.194561247712432e+002
	-1.194561247712432e-002
	-1.194561247712432e-002
203		1.208905116829427e-001
	1.199721221098086e+002
	-1.199721221098086e-002
	-1.199721221098086e-002
204		1.211764351174397e-001
	1.189975704506601e+002
	-1.189975704506601e-002
	-1.189975704506601e-002
205		1.216414117108937e-001
	1.144746581778309e+002
	-1.144746581778309e-002
	-1.144746581778309e-002
206		1.223913254061976e-001
	9.988950889791454e+001
	-9.988950889791454e-003
	-9.988950889791454e-003
207		1.233678879061976e-001
	6.926361630294265e+001
	-6.926361630294265e-003
	-6.926361630294265e-003
208		1.243444504061976e-001
	2.935540156588197e+001
	-2.935540156588197e-003
	-2.935540156588197e-003
209		1.253210129061976e-001
	-1.448685976720279e+001
	1.448685976720279e-003
	1.448685976720279e-003
210		1.262975754061976e-001
	-5.638767324694057e+001
	5.638767324694057e-003
	5.638767324694057e-003
211		1.272741379061976e-001
	-9.073172639768015e+001
	9.073172639768016e-003
	9.073172639768016e-003
212		1.280882870258218e-001
	-1.102193637379314e+002
	1.102193637379314e-002
	1.102193637379314e-002
213		1.284446042904913e-001
	-1.155814524362962e+002
	1.155814524362962e-002
	1.155814524362962e-002
214		1.287096582273671e-001
	-1.182234092716916e+002
	1.182234092716916e-002
	1.182234092716916e-002
215		1.290055821434027e-001
	-1.197787987130793e+002
	1.197787987130793e-002
	1.197787987130793e-002
216		1.293567323369824e-001
	-1.196920820323399e+002
	1.196920820323399e-002
	1.196920820323399e-002
217		1.297260519574536e-001
	-1.173415684109662e+002
	1.173415684109662e-002
	1.173415684109662e-002
218		1.303249247904989e-001
	-1.087406641745348e+002
	1.087406641745349e-002
	1.087406641745349e-002
219		1.312797729642829e-001
	-8.389508873395569e+001
	8.389508873395570e-003
	8.389508873395570e-003
220		1.322563354642829e-001
	-4.739457386023690e+001
	4.739457386023689e-003
	4.739457386023689e-003
221		1.332328979642829e-001
	-4.542503496929415e+000
	4.542503496929415e-004
	4.542503496929415e-004
222		1.342094604642829e-001
	3.891832775760417e+001
	-3.891832775760417e-003
	-3.891832775760417e-003
223		1.351860229642829e-001
	7.716354257799897e+001
	-7.716354257799897e-003
	-7.716354257799897e-003
224		1.361625854642829e-001
	1.050677313580968e+002
	-1.050677313580968e-002
	-1.050677313580968e-002
225		1.366386168081411e-001
	1.137282826465816e+002
	-1.137282826465816e-002
	-1.137282826465816e-002
226		1.369386374759218e-001
	1.173228122430489e+002
	-1.173228122430490e-002
	-1.173228122430490e-002
227		1.372129392287196e-001
	1.192979997117117e+002
	-1.192979997117117e-002
	-1.192979997117117e-002
228		1.374654152177923e-001
	1.199898005342053e+002
	-1.199898005342053e-002
	-1.199898005342053e-002
229		1.377371448616723e-001
	1.195207615622533e+002
	-1.195207615622533e-002
	-1.195207615622533e-002
230		1.381359489650574e-001
	1.165677667233665e+002
	-1.165677667233665e-002
	-1.165677667233665e-002
231		1.387817105962647e-001
	1.062618846372262e+002
	-1.062618846372262e-002
	-1.062618846372262e-002
232		1.397582730962647e-001
	7.907629720933342e+001
	-7.907629720933342e-003
	-7.907629720933342e-003
233		1.407348355962647e-001
	4.129334707242052e+001
	-4.129334707242052e-003
	-4.129334707242052e-003
234		1.417113980962647e-001
	-2.023506292628882e+000
	2.023506292628882e-004
	2.023506292628882e-004
235		1.426879605962647e-001
	-4.506918067126036e+001
	4.506918067126036e-003
	4.506918067126036e-003
236		1.436645230962647e-001
	-8.207493573870583e+001
	8.207493573870585e-003
	8.207493573870585e-003
237		1.446410855962647e-001
	-1.080814673468132e+002
	1.080814673468132e-002
	1.080814673468132e-002
238		1.450279709407718e-001
	-1.145114522827073e+002
	1.145114522827074e-002
	1.145114522827074e-002
239		1.453138306395858e-001
	-1.177059626363315e+002
	1.177059626363316e-002
	1.177059626363316e-002
240		1.455966372433453e-001
	-1.195225724600524e+002
	1.195225724600524e-002
	1.195225724600524e-002
241		1.459482531888879e-001
	-1.198874006973995e+002
	1.198874006973995e-002
	1.198874006973995e-002
242		1.462704368778889e-001
	-1.183744542665614e+002
	1.183744542665615e-002
	1.183744542665615e-002
243		1.467938358992887e-001
	-1.122185583481528e+002
	1.122185583481528e-002
	1.122185583481528e-002
244		1.476342354230509e-001
	-9.338985496740506e+001
	9.338985496740506e-003
	9.338985496740506e-003
245		1.486107979230509e-001
	-6.001226968434060e+001
	6.001226968434061e-003
	6.001226968434061e-003
246		1.495873604230509e-001
	-1.859217594703183e+001
	1.859217594703183e-003
	1.859217594703183e-003
247		1.505639229230509e-001
	2.531953713784310e+001
	-2.531953713784310e-003
	-2.531953713784310e-003
248		1.515404854230509e-001
	6.583806758590376e+001
	-6.583806758590377e-003
	-6.583806758590377e-003
249		1.525170479230509e-001
	9.753334875584368e+001
	-9.753334875584368e-003
	-9.753334875584368e-003
250		1.531854184228149e-001
	1.118826713667318e+002
	-1.118826713667319e-002
	-1.118826713667319e-002
251		1.535162370229336e-001
	1.164104747415926e+002
	-1.164104747415926e-002
	-1.164104747415926e-002
252		1.537688535230541e-001
	1.186530310246248e+002
	-1.186530310246248e-002
	-1.186530310246248e-002
253		1.540824266364895e-001
	1.199394918305742e+002
	-1.199394918305742e-002
	-1.199394918305742e-002
254		1.543853473118692e-001
	1.195924431518951e+002
	-1.195924431518951e-002
	-1.195924431518951e-002
255		1.547725928261997e-001
	1.168828074855748e+002
	-1.168828074855749e-002
	-1.168828074855749e-002
256		1.554000051581962e-001
	1.072608662671436e+002
	-1.072608662671437e-002
	-1.072608662671437e-002
257		1.563765676581962e-001
	8.070903348512324e+001
	-8.070903348512324e-003
	-8.070903348512324e-003
258		1.573531301581962e-001
	4.334102781791937e+001
	-4.334102781791937e-003
	-4.334102781791937e-003
259		1.583296926581962e-001
	1.647002113072559e-001
	-1.647002113072559e-005
	-1.647002113072559e-005
260		1.593062551581962e-001
	-4.303369959568771e+001
	4.303369959568771e-003
	4.303369959568771e-003
261		1.602828176581962e-001
	-8.046496387129461e+001
	8.046496387129462e-003
	8.046496387129462e-003
262		1.612593801581962e-001
	-1.071127641051435e+002
	1.071127641051435e-002
	1.071127641051435e-002
263		1.616750183928609e-001
	-1.142429698682028e+002
	1.142429698682028e-002
	1.142429698682028e-002
264		1.619658214297460e-001
	-1.175749638829820e+002
	1.175749638829820e-002
	1.175749638829820e-002
265		1.622456194213480e-001
	-1.194486231525752e+002
	1.194486231525752e-002
	1.194486231525752e-002
266		1.625540931648642e-001
	-1.199750492720549e+002
	1.199750492720549e-002
	1.199750492720549e-002
267		1.628380785470932e-001
	-1.190266685893091e+002
	1.190266685893091e-002
	1.190266685893091e-002
268		1.632999249295567e-001
	-1.145847541086583e+002
	1.145847541086583e-002
	1.145847541086583e-002
269		1.640449491927922e-001
	-1.002152778081248e+002
	1.002152778081248e-002
	1.002152778081248e-002
270		1.650215116927922e-001
	-6.974461161039868e+001
	6.974461161039868e-003
	6.974461161039868e-003
271		1.659980741927922e-001
	-2.992716297193125e+001
	2.992716297193125e-003
	2.992716297193125e-003
272		1.669746366927922e-001
	1.390095652566845e+001
	-1.390095652566845e-003
	-1.390095652566845e-003
273		1.679511991927922e-001
	5.586614764265733e+001
	-5.586614764265733e-003
	-5.586614764265733e-003
274		1.689277616927922e-001
	9.034447037280749e+001
	-9.034447037280749e-003
	-9.034447037280749e-003
275		1.697496152904781e-001
	1.101236420220203e+002
	-1.101236420220204e-002
	-1.101236420220204e-002
276		1.701073489396976e-001
	1.155336225359283e+002
	-1.155336225359283e-002
	-1.155336225359283e-002
277		1.703733760805347e-001
	1.182004663208882e+002
	-1.182004663208882e-002
	-1.182004663208882e-002
278		1.706686704024496e-001
	1.197688650056549e+002
	-1.197688650056549e-002
	-1.197688650056549e-002
279		1.710220647385885e-001
	1.196963882217915e+002
	-1.196963882217915e-002
	-1.196963882217915e-002
280		1.713905481517129e-001
	1.173620825912140e+002
	-1.173620825912140e-002
	-1.173620825912140e-002
281		1.719880873320062e-001
	1.088076100138118e+002
	-1.088076100138118e-002
	-1.088076100138118e-002
282		1.729409397658815e-001
	8.407280570572853e+001
	-8.407280570572853e-003
	-8.407280570572853e-003
283		1.739175022658815e-001
	4.762305190243269e+001
	-4.762305190243270e-003
	-4.762305190243270e-003
284		1.748940647658815e-001
	4.791123261277051e+000
	-4.791123261277050e-004
	-4.791123261277050e-004
285		1.758706272658815e-001
	-3.868288490023210e+001
	3.868288490023210e-003
	3.868288490023210e-003
286		1.768471897658815e-001
	-7.697282936141467e+001
	7.697282936141467e-003
	7.697282936141467e-003
287		1.778237522658815e-001
	-1.049473061000382e+002
	1.049473061000382e-002
	1.049473061000382e-002
288		1.783032068619780e-001
	-1.136982744323916e+002
	1.136982744323916e-002
	1.136982744323916e-002
289		1.786037551993415e-001
	-1.173080733268232e+002
	1.173080733268232e-002
	1.173080733268232e-002
290		1.788777106119782e-001
	-1.192887085682528e+002
	1.192887085682529e-002
	1.192887085682529e-002
291		1.791593596938357e-001
	-1.199995447099090e+002
	1.199995447099090e-002
	1.199995447099090e-002
292		1.794139507944625e-001
	-1.194789355773048e+002
	1.194789355773048e-002
	1.194789355773048e-002