Title: * Circuito en corriente alterna
Date: Mon Dec 21 10:32:37 2020
Plotname: Operating Point
Flags: real
No. Variables: 3
No. Points:            1
Offset:   0.0000000000000000e+000
Command: Linear Technology Corporation LTspice XVII
Variables:
	0	V(1)	voltage
	1	I(R1)	device_current
	2	I(V1)	device_current
Values:
0		0.000000000000000e+000
	0.000000000000000e+000
	0.000000000000000e+000
