Title: * Este es un circuito sencillo adaptado para LTspice
Date: Thu Dec 17 11:11:06 2020
Plotname: DC transfer characteristic
Flags: real forward
No. Variables: 4
No. Points:         1001
Offset:   0.0000000000000000e+000
Command: Linear Technology Corporation LTspice XVII
Variables:
	0	v1	voltage
	1	V(1)	voltage
	2	I(R1)	device_current
	3	I(V1)	device_current
Values:
0		1.000000000000000e+000
	-1.000000000000000e+000
	-1.000000000000000e-002
	-1.000000000000000e-002
1		1.009000000000000e+000
	-1.009000000000000e+000
	-1.009000000000000e-002
	-1.009000000000000e-002
2		1.018000000000000e+000
	-1.018000000000000e+000
	-1.018000000000000e-002
	-1.018000000000000e-002
3		1.027000000000000e+000
	-1.027000000000000e+000
	-1.027000000000000e-002
	-1.027000000000000e-002
4		1.036000000000000e+000
	-1.036000000000000e+000
	-1.036000000000000e-002
	-1.036000000000000e-002
5		1.045000000000000e+000
	-1.045000000000000e+000
	-1.045000000000000e-002
	-1.045000000000000e-002
6		1.053999999999999e+000
	-1.053999999999999e+000
	-1.053999999999999e-002
	-1.053999999999999e-002
7		1.062999999999999e+000
	-1.062999999999999e+000
	-1.062999999999999e-002
	-1.062999999999999e-002
8		1.071999999999999e+000
	-1.071999999999999e+000
	-1.071999999999999e-002
	-1.071999999999999e-002
9		1.080999999999999e+000
	-1.080999999999999e+000
	-1.080999999999999e-002
	-1.080999999999999e-002
10		1.089999999999999e+000
	-1.089999999999999e+000
	-1.089999999999999e-002
	-1.089999999999999e-002
11		1.098999999999999e+000
	-1.098999999999999e+000
	-1.098999999999999e-002
	-1.098999999999999e-002
12		1.107999999999999e+000
	-1.107999999999999e+000
	-1.107999999999999e-002
	-1.107999999999999e-002
13		1.116999999999999e+000
	-1.116999999999999e+000
	-1.116999999999999e-002
	-1.116999999999999e-002
14		1.125999999999999e+000
	-1.125999999999999e+000
	-1.125999999999999e-002
	-1.125999999999999e-002
15		1.134999999999999e+000
	-1.134999999999999e+000
	-1.134999999999999e-002
	-1.134999999999999e-002
16		1.143999999999998e+000
	-1.143999999999998e+000
	-1.143999999999998e-002
	-1.143999999999998e-002
17		1.152999999999998e+000
	-1.152999999999998e+000
	-1.152999999999998e-002
	-1.152999999999998e-002
18		1.161999999999998e+000
	-1.161999999999998e+000
	-1.161999999999998e-002
	-1.161999999999998e-002
19		1.170999999999998e+000
	-1.170999999999998e+000
	-1.170999999999998e-002
	-1.170999999999998e-002
20		1.179999999999998e+000
	-1.179999999999998e+000
	-1.179999999999998e-002
	-1.179999999999998e-002
21		1.188999999999998e+000
	-1.188999999999998e+000
	-1.188999999999998e-002
	-1.188999999999998e-002
22		1.197999999999998e+000
	-1.197999999999998e+000
	-1.197999999999998e-002
	-1.197999999999998e-002
23		1.206999999999998e+000
	-1.206999999999998e+000
	-1.206999999999998e-002
	-1.206999999999998e-002
24		1.215999999999998e+000
	-1.215999999999998e+000
	-1.215999999999998e-002
	-1.215999999999998e-002
25		1.224999999999997e+000
	-1.224999999999997e+000
	-1.224999999999997e-002
	-1.224999999999997e-002
26		1.233999999999997e+000
	-1.233999999999997e+000
	-1.233999999999997e-002
	-1.233999999999997e-002
27		1.242999999999997e+000
	-1.242999999999997e+000
	-1.242999999999997e-002
	-1.242999999999997e-002
28		1.251999999999997e+000
	-1.251999999999997e+000
	-1.251999999999997e-002
	-1.251999999999997e-002
29		1.260999999999997e+000
	-1.260999999999997e+000
	-1.260999999999997e-002
	-1.260999999999997e-002
30		1.269999999999997e+000
	-1.269999999999997e+000
	-1.269999999999997e-002
	-1.269999999999997e-002
31		1.278999999999997e+000
	-1.278999999999997e+000
	-1.278999999999997e-002
	-1.278999999999997e-002
32		1.287999999999997e+000
	-1.287999999999997e+000
	-1.287999999999997e-002
	-1.287999999999997e-002
33		1.296999999999997e+000
	-1.296999999999997e+000
	-1.296999999999997e-002
	-1.296999999999997e-002
34		1.305999999999997e+000
	-1.305999999999997e+000
	-1.305999999999997e-002
	-1.305999999999997e-002
35		1.314999999999996e+000
	-1.314999999999996e+000
	-1.314999999999996e-002
	-1.314999999999996e-002
36		1.323999999999996e+000
	-1.323999999999996e+000
	-1.323999999999996e-002
	-1.323999999999996e-002
37		1.332999999999996e+000
	-1.332999999999996e+000
	-1.332999999999996e-002
	-1.332999999999996e-002
38		1.341999999999996e+000
	-1.341999999999996e+000
	-1.341999999999996e-002
	-1.341999999999996e-002
39		1.350999999999996e+000
	-1.350999999999996e+000
	-1.350999999999996e-002
	-1.350999999999996e-002
40		1.359999999999996e+000
	-1.359999999999996e+000
	-1.359999999999996e-002
	-1.359999999999996e-002
41		1.368999999999996e+000
	-1.368999999999996e+000
	-1.368999999999996e-002
	-1.368999999999996e-002
42		1.377999999999996e+000
	-1.377999999999996e+000
	-1.377999999999996e-002
	-1.377999999999996e-002
43		1.386999999999996e+000
	-1.386999999999996e+000
	-1.386999999999996e-002
	-1.386999999999996e-002
44		1.395999999999996e+000
	-1.395999999999996e+000
	-1.395999999999996e-002
	-1.395999999999996e-002
45		1.404999999999995e+000
	-1.404999999999995e+000
	-1.404999999999995e-002
	-1.404999999999995e-002
46		1.413999999999995e+000
	-1.413999999999995e+000
	-1.413999999999995e-002
	-1.413999999999995e-002
47		1.422999999999995e+000
	-1.422999999999995e+000
	-1.422999999999995e-002
	-1.422999999999995e-002
48		1.431999999999995e+000
	-1.431999999999995e+000
	-1.431999999999995e-002
	-1.431999999999995e-002
49		1.440999999999995e+000
	-1.440999999999995e+000
	-1.440999999999995e-002
	-1.440999999999995e-002
50		1.449999999999995e+000
	-1.449999999999995e+000
	-1.449999999999995e-002
	-1.449999999999995e-002
51		1.458999999999995e+000
	-1.458999999999995e+000
	-1.458999999999995e-002
	-1.458999999999995e-002
52		1.467999999999995e+000
	-1.467999999999995e+000
	-1.467999999999995e-002
	-1.467999999999995e-002
53		1.476999999999995e+000
	-1.476999999999995e+000
	-1.476999999999995e-002
	-1.476999999999995e-002
54		1.485999999999994e+000
	-1.485999999999994e+000
	-1.485999999999994e-002
	-1.485999999999994e-002
55		1.494999999999994e+000
	-1.494999999999994e+000
	-1.494999999999994e-002
	-1.494999999999994e-002
56		1.503999999999994e+000
	-1.503999999999994e+000
	-1.503999999999994e-002
	-1.503999999999994e-002
57		1.512999999999994e+000
	-1.512999999999994e+000
	-1.512999999999994e-002
	-1.512999999999994e-002
58		1.521999999999994e+000
	-1.521999999999994e+000
	-1.521999999999994e-002
	-1.521999999999994e-002
59		1.530999999999994e+000
	-1.530999999999994e+000
	-1.530999999999994e-002
	-1.530999999999994e-002
60		1.539999999999994e+000
	-1.539999999999994e+000
	-1.539999999999994e-002
	-1.539999999999994e-002
61		1.548999999999994e+000
	-1.548999999999994e+000
	-1.548999999999994e-002
	-1.548999999999994e-002
62		1.557999999999994e+000
	-1.557999999999994e+000
	-1.557999999999994e-002
	-1.557999999999994e-002
63		1.566999999999994e+000
	-1.566999999999994e+000
	-1.566999999999993e-002
	-1.566999999999993e-002
64		1.575999999999993e+000
	-1.575999999999993e+000
	-1.575999999999993e-002
	-1.575999999999993e-002
65		1.584999999999993e+000
	-1.584999999999993e+000
	-1.584999999999993e-002
	-1.584999999999993e-002
66		1.593999999999993e+000
	-1.593999999999993e+000
	-1.593999999999993e-002
	-1.593999999999993e-002
67		1.602999999999993e+000
	-1.602999999999993e+000
	-1.602999999999993e-002
	-1.602999999999993e-002
68		1.611999999999993e+000
	-1.611999999999993e+000
	-1.611999999999993e-002
	-1.611999999999993e-002
69		1.620999999999993e+000
	-1.620999999999993e+000
	-1.620999999999993e-002
	-1.620999999999993e-002
70		1.629999999999993e+000
	-1.629999999999993e+000
	-1.629999999999993e-002
	-1.629999999999993e-002
71		1.638999999999993e+000
	-1.638999999999993e+000
	-1.638999999999993e-002
	-1.638999999999993e-002
72		1.647999999999993e+000
	-1.647999999999993e+000
	-1.647999999999993e-002
	-1.647999999999993e-002
73		1.656999999999993e+000
	-1.656999999999993e+000
	-1.656999999999993e-002
	-1.656999999999993e-002
74		1.665999999999992e+000
	-1.665999999999992e+000
	-1.665999999999993e-002
	-1.665999999999993e-002
75		1.674999999999992e+000
	-1.674999999999992e+000
	-1.674999999999993e-002
	-1.674999999999993e-002
76		1.683999999999992e+000
	-1.683999999999992e+000
	-1.683999999999992e-002
	-1.683999999999992e-002
77		1.692999999999992e+000
	-1.692999999999992e+000
	-1.692999999999992e-002
	-1.692999999999992e-002
78		1.701999999999992e+000
	-1.701999999999992e+000
	-1.701999999999992e-002
	-1.701999999999992e-002
79		1.710999999999992e+000
	-1.710999999999992e+000
	-1.710999999999992e-002
	-1.710999999999992e-002
80		1.719999999999992e+000
	-1.719999999999992e+000
	-1.719999999999992e-002
	-1.719999999999992e-002
81		1.728999999999992e+000
	-1.728999999999992e+000
	-1.728999999999992e-002
	-1.728999999999992e-002
82		1.737999999999992e+000
	-1.737999999999992e+000
	-1.737999999999992e-002
	-1.737999999999992e-002
83		1.746999999999991e+000
	-1.746999999999991e+000
	-1.746999999999992e-002
	-1.746999999999992e-002
84		1.755999999999991e+000
	-1.755999999999991e+000
	-1.755999999999991e-002
	-1.755999999999991e-002
85		1.764999999999991e+000
	-1.764999999999991e+000
	-1.764999999999991e-002
	-1.764999999999991e-002
86		1.773999999999991e+000
	-1.773999999999991e+000
	-1.773999999999991e-002
	-1.773999999999991e-002
87		1.782999999999991e+000
	-1.782999999999991e+000
	-1.782999999999991e-002
	-1.782999999999991e-002
88		1.791999999999991e+000
	-1.791999999999991e+000
	-1.791999999999991e-002
	-1.791999999999991e-002
89		1.800999999999991e+000
	-1.800999999999991e+000
	-1.800999999999991e-002
	-1.800999999999991e-002
90		1.809999999999991e+000
	-1.809999999999991e+000
	-1.809999999999991e-002
	-1.809999999999991e-002
91		1.818999999999991e+000
	-1.818999999999991e+000
	-1.818999999999991e-002
	-1.818999999999991e-002
92		1.827999999999991e+000
	-1.827999999999991e+000
	-1.827999999999990e-002
	-1.827999999999990e-002
93		1.836999999999990e+000
	-1.836999999999990e+000
	-1.836999999999990e-002
	-1.836999999999990e-002
94		1.845999999999990e+000
	-1.845999999999990e+000
	-1.845999999999990e-002
	-1.845999999999990e-002
95		1.854999999999990e+000
	-1.854999999999990e+000
	-1.854999999999990e-002
	-1.854999999999990e-002
96		1.863999999999990e+000
	-1.863999999999990e+000
	-1.863999999999990e-002
	-1.863999999999990e-002
97		1.872999999999990e+000
	-1.872999999999990e+000
	-1.872999999999990e-002
	-1.872999999999990e-002
98		1.881999999999990e+000
	-1.881999999999990e+000
	-1.881999999999990e-002
	-1.881999999999990e-002
99		1.890999999999990e+000
	-1.890999999999990e+000
	-1.890999999999990e-002
	-1.890999999999990e-002
100		1.899999999999990e+000
	-1.899999999999990e+000
	-1.899999999999990e-002
	-1.899999999999990e-002
101		1.908999999999990e+000
	-1.908999999999990e+000
	-1.908999999999990e-002
	-1.908999999999990e-002
102		1.917999999999990e+000
	-1.917999999999990e+000
	-1.917999999999990e-002
	-1.917999999999990e-002
103		1.926999999999989e+000
	-1.926999999999989e+000
	-1.926999999999990e-002
	-1.926999999999990e-002
104		1.935999999999989e+000
	-1.935999999999989e+000
	-1.935999999999990e-002
	-1.935999999999990e-002
105		1.944999999999989e+000
	-1.944999999999989e+000
	-1.944999999999989e-002
	-1.944999999999989e-002
106		1.953999999999989e+000
	-1.953999999999989e+000
	-1.953999999999989e-002
	-1.953999999999989e-002
107		1.962999999999989e+000
	-1.962999999999989e+000
	-1.962999999999989e-002
	-1.962999999999989e-002
108		1.971999999999989e+000
	-1.971999999999989e+000
	-1.971999999999989e-002
	-1.971999999999989e-002
109		1.980999999999989e+000
	-1.980999999999989e+000
	-1.980999999999989e-002
	-1.980999999999989e-002
110		1.989999999999989e+000
	-1.989999999999989e+000
	-1.989999999999989e-002
	-1.989999999999989e-002
111		1.998999999999989e+000
	-1.998999999999989e+000
	-1.998999999999989e-002
	-1.998999999999989e-002
112		2.007999999999989e+000
	-2.007999999999989e+000
	-2.007999999999989e-002
	-2.007999999999989e-002
113		2.016999999999988e+000
	-2.016999999999988e+000
	-2.016999999999988e-002
	-2.016999999999988e-002
114		2.025999999999988e+000
	-2.025999999999988e+000
	-2.025999999999988e-002
	-2.025999999999988e-002
115		2.034999999999988e+000
	-2.034999999999988e+000
	-2.034999999999988e-002
	-2.034999999999988e-002
116		2.043999999999988e+000
	-2.043999999999988e+000
	-2.043999999999988e-002
	-2.043999999999988e-002
117		2.052999999999988e+000
	-2.052999999999988e+000
	-2.052999999999988e-002
	-2.052999999999988e-002
118		2.061999999999988e+000
	-2.061999999999988e+000
	-2.061999999999988e-002
	-2.061999999999988e-002
119		2.070999999999988e+000
	-2.070999999999988e+000
	-2.070999999999988e-002
	-2.070999999999988e-002
120		2.079999999999988e+000
	-2.079999999999988e+000
	-2.079999999999988e-002
	-2.079999999999988e-002
121		2.088999999999988e+000
	-2.088999999999988e+000
	-2.088999999999988e-002
	-2.088999999999988e-002
122		2.097999999999987e+000
	-2.097999999999987e+000
	-2.097999999999987e-002
	-2.097999999999987e-002
123		2.106999999999987e+000
	-2.106999999999987e+000
	-2.106999999999987e-002
	-2.106999999999987e-002
124		2.115999999999987e+000
	-2.115999999999987e+000
	-2.115999999999987e-002
	-2.115999999999987e-002
125		2.124999999999987e+000
	-2.124999999999987e+000
	-2.124999999999987e-002
	-2.124999999999987e-002
126		2.133999999999987e+000
	-2.133999999999987e+000
	-2.133999999999987e-002
	-2.133999999999987e-002
127		2.142999999999987e+000
	-2.142999999999987e+000
	-2.142999999999987e-002
	-2.142999999999987e-002
128		2.151999999999987e+000
	-2.151999999999987e+000
	-2.151999999999987e-002
	-2.151999999999987e-002
129		2.160999999999987e+000
	-2.160999999999987e+000
	-2.160999999999987e-002
	-2.160999999999987e-002
130		2.169999999999987e+000
	-2.169999999999987e+000
	-2.169999999999987e-002
	-2.169999999999987e-002
131		2.178999999999987e+000
	-2.178999999999987e+000
	-2.178999999999987e-002
	-2.178999999999987e-002
132		2.187999999999986e+000
	-2.187999999999986e+000
	-2.187999999999987e-002
	-2.187999999999987e-002
133		2.196999999999986e+000
	-2.196999999999986e+000
	-2.196999999999987e-002
	-2.196999999999987e-002
134		2.205999999999986e+000
	-2.205999999999986e+000
	-2.205999999999986e-002
	-2.205999999999986e-002
135		2.214999999999986e+000
	-2.214999999999986e+000
	-2.214999999999986e-002
	-2.214999999999986e-002
136		2.223999999999986e+000
	-2.223999999999986e+000
	-2.223999999999986e-002
	-2.223999999999986e-002
137		2.232999999999986e+000
	-2.232999999999986e+000
	-2.232999999999986e-002
	-2.232999999999986e-002
138		2.241999999999986e+000
	-2.241999999999986e+000
	-2.241999999999986e-002
	-2.241999999999986e-002
139		2.250999999999986e+000
	-2.250999999999986e+000
	-2.250999999999986e-002
	-2.250999999999986e-002
140		2.259999999999986e+000
	-2.259999999999986e+000
	-2.259999999999986e-002
	-2.259999999999986e-002
141		2.268999999999986e+000
	-2.268999999999986e+000
	-2.268999999999986e-002
	-2.268999999999986e-002
142		2.277999999999985e+000
	-2.277999999999985e+000
	-2.277999999999985e-002
	-2.277999999999985e-002
143		2.286999999999985e+000
	-2.286999999999985e+000
	-2.286999999999985e-002
	-2.286999999999985e-002
144		2.295999999999985e+000
	-2.295999999999985e+000
	-2.295999999999985e-002
	-2.295999999999985e-002
145		2.304999999999985e+000
	-2.304999999999985e+000
	-2.304999999999985e-002
	-2.304999999999985e-002
146		2.313999999999985e+000
	-2.313999999999985e+000
	-2.313999999999985e-002
	-2.313999999999985e-002
147		2.322999999999985e+000
	-2.322999999999985e+000
	-2.322999999999985e-002
	-2.322999999999985e-002
148		2.331999999999985e+000
	-2.331999999999985e+000
	-2.331999999999985e-002
	-2.331999999999985e-002
149		2.340999999999985e+000
	-2.340999999999985e+000
	-2.340999999999985e-002
	-2.340999999999985e-002
150		2.349999999999985e+000
	-2.349999999999985e+000
	-2.349999999999985e-002
	-2.349999999999985e-002
151		2.358999999999984e+000
	-2.358999999999984e+000
	-2.358999999999984e-002
	-2.358999999999984e-002
152		2.367999999999984e+000
	-2.367999999999984e+000
	-2.367999999999984e-002
	-2.367999999999984e-002
153		2.376999999999984e+000
	-2.376999999999984e+000
	-2.376999999999984e-002
	-2.376999999999984e-002
154		2.385999999999984e+000
	-2.385999999999984e+000
	-2.385999999999984e-002
	-2.385999999999984e-002
155		2.394999999999984e+000
	-2.394999999999984e+000
	-2.394999999999984e-002
	-2.394999999999984e-002
156		2.403999999999984e+000
	-2.403999999999984e+000
	-2.403999999999984e-002
	-2.403999999999984e-002
157		2.412999999999984e+000
	-2.412999999999984e+000
	-2.412999999999984e-002
	-2.412999999999984e-002
158		2.421999999999984e+000
	-2.421999999999984e+000
	-2.421999999999984e-002
	-2.421999999999984e-002
159		2.430999999999984e+000
	-2.430999999999984e+000
	-2.430999999999984e-002
	-2.430999999999984e-002
160		2.439999999999984e+000
	-2.439999999999984e+000
	-2.439999999999984e-002
	-2.439999999999984e-002
161		2.448999999999983e+000
	-2.448999999999983e+000
	-2.448999999999984e-002
	-2.448999999999984e-002
162		2.457999999999983e+000
	-2.457999999999983e+000
	-2.457999999999984e-002
	-2.457999999999984e-002
163		2.466999999999983e+000
	-2.466999999999983e+000
	-2.466999999999983e-002
	-2.466999999999983e-002
164		2.475999999999983e+000
	-2.475999999999983e+000
	-2.475999999999983e-002
	-2.475999999999983e-002
165		2.484999999999983e+000
	-2.484999999999983e+000
	-2.484999999999983e-002
	-2.484999999999983e-002
166		2.493999999999983e+000
	-2.493999999999983e+000
	-2.493999999999983e-002
	-2.493999999999983e-002
167		2.502999999999983e+000
	-2.502999999999983e+000
	-2.502999999999983e-002
	-2.502999999999983e-002
168		2.511999999999983e+000
	-2.511999999999983e+000
	-2.511999999999983e-002
	-2.511999999999983e-002
169		2.520999999999983e+000
	-2.520999999999983e+000
	-2.520999999999983e-002
	-2.520999999999983e-002
170		2.529999999999983e+000
	-2.529999999999983e+000
	-2.529999999999983e-002
	-2.529999999999983e-002
171		2.538999999999982e+000
	-2.538999999999982e+000
	-2.538999999999983e-002
	-2.538999999999983e-002
172		2.547999999999982e+000
	-2.547999999999982e+000
	-2.547999999999982e-002
	-2.547999999999982e-002
173		2.556999999999982e+000
	-2.556999999999982e+000
	-2.556999999999982e-002
	-2.556999999999982e-002
174		2.565999999999982e+000
	-2.565999999999982e+000
	-2.565999999999982e-002
	-2.565999999999982e-002
175		2.574999999999982e+000
	-2.574999999999982e+000
	-2.574999999999982e-002
	-2.574999999999982e-002
176		2.583999999999982e+000
	-2.583999999999982e+000
	-2.583999999999982e-002
	-2.583999999999982e-002
177		2.592999999999982e+000
	-2.592999999999982e+000
	-2.592999999999982e-002
	-2.592999999999982e-002
178		2.601999999999982e+000
	-2.601999999999982e+000
	-2.601999999999982e-002
	-2.601999999999982e-002
179		2.610999999999982e+000
	-2.610999999999982e+000
	-2.610999999999982e-002
	-2.610999999999982e-002
180		2.619999999999982e+000
	-2.619999999999982e+000
	-2.619999999999981e-002
	-2.619999999999981e-002
181		2.628999999999981e+000
	-2.628999999999981e+000
	-2.628999999999981e-002
	-2.628999999999981e-002
182		2.637999999999981e+000
	-2.637999999999981e+000
	-2.637999999999981e-002
	-2.637999999999981e-002
183		2.646999999999981e+000
	-2.646999999999981e+000
	-2.646999999999981e-002
	-2.646999999999981e-002
184		2.655999999999981e+000
	-2.655999999999981e+000
	-2.655999999999981e-002
	-2.655999999999981e-002
185		2.664999999999981e+000
	-2.664999999999981e+000
	-2.664999999999981e-002
	-2.664999999999981e-002
186		2.673999999999981e+000
	-2.673999999999981e+000
	-2.673999999999981e-002
	-2.673999999999981e-002
187		2.682999999999981e+000
	-2.682999999999981e+000
	-2.682999999999981e-002
	-2.682999999999981e-002
188		2.691999999999981e+000
	-2.691999999999981e+000
	-2.691999999999981e-002
	-2.691999999999981e-002
189		2.700999999999981e+000
	-2.700999999999981e+000
	-2.700999999999981e-002
	-2.700999999999981e-002
190		2.709999999999980e+000
	-2.709999999999980e+000
	-2.709999999999981e-002
	-2.709999999999981e-002
191		2.718999999999980e+000
	-2.718999999999980e+000
	-2.718999999999981e-002
	-2.718999999999981e-002
192		2.727999999999980e+000
	-2.727999999999980e+000
	-2.727999999999980e-002
	-2.727999999999980e-002
193		2.736999999999980e+000
	-2.736999999999980e+000
	-2.736999999999980e-002
	-2.736999999999980e-002
194		2.745999999999980e+000
	-2.745999999999980e+000
	-2.745999999999980e-002
	-2.745999999999980e-002
195		2.754999999999980e+000
	-2.754999999999980e+000
	-2.754999999999980e-002
	-2.754999999999980e-002
196		2.763999999999980e+000
	-2.763999999999980e+000
	-2.763999999999980e-002
	-2.763999999999980e-002
197		2.772999999999980e+000
	-2.772999999999980e+000
	-2.772999999999980e-002
	-2.772999999999980e-002
198		2.781999999999980e+000
	-2.781999999999980e+000
	-2.781999999999980e-002
	-2.781999999999980e-002
199		2.790999999999980e+000
	-2.790999999999980e+000
	-2.790999999999980e-002
	-2.790999999999980e-002
200		2.799999999999979e+000
	-2.799999999999979e+000
	-2.799999999999980e-002
	-2.799999999999980e-002
201		2.808999999999979e+000
	-2.808999999999979e+000
	-2.808999999999979e-002
	-2.808999999999979e-002
202		2.817999999999979e+000
	-2.817999999999979e+000
	-2.817999999999979e-002
	-2.817999999999979e-002
203		2.826999999999979e+000
	-2.826999999999979e+000
	-2.826999999999979e-002
	-2.826999999999979e-002
204		2.835999999999979e+000
	-2.835999999999979e+000
	-2.835999999999979e-002
	-2.835999999999979e-002
205		2.844999999999979e+000
	-2.844999999999979e+000
	-2.844999999999979e-002
	-2.844999999999979e-002
206		2.853999999999979e+000
	-2.853999999999979e+000
	-2.853999999999979e-002
	-2.853999999999979e-002
207		2.862999999999979e+000
	-2.862999999999979e+000
	-2.862999999999979e-002
	-2.862999999999979e-002
208		2.871999999999979e+000
	-2.871999999999979e+000
	-2.871999999999979e-002
	-2.871999999999979e-002
209		2.880999999999979e+000
	-2.880999999999979e+000
	-2.880999999999978e-002
	-2.880999999999978e-002
210		2.889999999999978e+000
	-2.889999999999978e+000
	-2.889999999999978e-002
	-2.889999999999978e-002
211		2.898999999999978e+000
	-2.898999999999978e+000
	-2.898999999999978e-002
	-2.898999999999978e-002
212		2.907999999999978e+000
	-2.907999999999978e+000
	-2.907999999999978e-002
	-2.907999999999978e-002
213		2.916999999999978e+000
	-2.916999999999978e+000
	-2.916999999999978e-002
	-2.916999999999978e-002
214		2.925999999999978e+000
	-2.925999999999978e+000
	-2.925999999999978e-002
	-2.925999999999978e-002
215		2.934999999999978e+000
	-2.934999999999978e+000
	-2.934999999999978e-002
	-2.934999999999978e-002
216		2.943999999999978e+000
	-2.943999999999978e+000
	-2.943999999999978e-002
	-2.943999999999978e-002
217		2.952999999999978e+000
	-2.952999999999978e+000
	-2.952999999999978e-002
	-2.952999999999978e-002
218		2.961999999999978e+000
	-2.961999999999978e+000
	-2.961999999999978e-002
	-2.961999999999978e-002
219		2.970999999999977e+000
	-2.970999999999977e+000
	-2.970999999999978e-002
	-2.970999999999978e-002
220		2.979999999999977e+000
	-2.979999999999977e+000
	-2.979999999999978e-002
	-2.979999999999978e-002
221		2.988999999999977e+000
	-2.988999999999977e+000
	-2.988999999999977e-002
	-2.988999999999977e-002
222		2.997999999999977e+000
	-2.997999999999977e+000
	-2.997999999999977e-002
	-2.997999999999977e-002
223		3.006999999999977e+000
	-3.006999999999977e+000
	-3.006999999999977e-002
	-3.006999999999977e-002
224		3.015999999999977e+000
	-3.015999999999977e+000
	-3.015999999999977e-002
	-3.015999999999977e-002
225		3.024999999999977e+000
	-3.024999999999977e+000
	-3.024999999999977e-002
	-3.024999999999977e-002
226		3.033999999999977e+000
	-3.033999999999977e+000
	-3.033999999999977e-002
	-3.033999999999977e-002
227		3.042999999999977e+000
	-3.042999999999977e+000
	-3.042999999999977e-002
	-3.042999999999977e-002
228		3.051999999999977e+000
	-3.051999999999977e+000
	-3.051999999999977e-002
	-3.051999999999977e-002
229		3.060999999999976e+000
	-3.060999999999976e+000
	-3.060999999999977e-002
	-3.060999999999977e-002
230		3.069999999999976e+000
	-3.069999999999976e+000
	-3.069999999999976e-002
	-3.069999999999976e-002
231		3.078999999999976e+000
	-3.078999999999976e+000
	-3.078999999999976e-002
	-3.078999999999976e-002
232		3.087999999999976e+000
	-3.087999999999976e+000
	-3.087999999999976e-002
	-3.087999999999976e-002
233		3.096999999999976e+000
	-3.096999999999976e+000
	-3.096999999999976e-002
	-3.096999999999976e-002
234		3.105999999999976e+000
	-3.105999999999976e+000
	-3.105999999999976e-002
	-3.105999999999976e-002
235		3.114999999999976e+000
	-3.114999999999976e+000
	-3.114999999999976e-002
	-3.114999999999976e-002
236		3.123999999999976e+000
	-3.123999999999976e+000
	-3.123999999999976e-002
	-3.123999999999976e-002
237		3.132999999999976e+000
	-3.132999999999976e+000
	-3.132999999999975e-002
	-3.132999999999975e-002
238		3.141999999999976e+000
	-3.141999999999976e+000
	-3.141999999999975e-002
	-3.141999999999975e-002
239		3.150999999999975e+000
	-3.150999999999975e+000
	-3.150999999999975e-002
	-3.150999999999975e-002
240		3.159999999999975e+000
	-3.159999999999975e+000
	-3.159999999999975e-002
	-3.159999999999975e-002
241		3.168999999999975e+000
	-3.168999999999975e+000
	-3.168999999999975e-002
	-3.168999999999975e-002
242		3.177999999999975e+000
	-3.177999999999975e+000
	-3.177999999999975e-002
	-3.177999999999975e-002
243		3.186999999999975e+000
	-3.186999999999975e+000
	-3.186999999999975e-002
	-3.186999999999975e-002
244		3.195999999999975e+000
	-3.195999999999975e+000
	-3.195999999999975e-002
	-3.195999999999975e-002
245		3.204999999999975e+000
	-3.204999999999975e+000
	-3.204999999999975e-002
	-3.204999999999975e-002
246		3.213999999999975e+000
	-3.213999999999975e+000
	-3.213999999999975e-002
	-3.213999999999975e-002
247		3.222999999999975e+000
	-3.222999999999975e+000
	-3.222999999999975e-002
	-3.222999999999975e-002
248		3.231999999999974e+000
	-3.231999999999974e+000
	-3.231999999999975e-002
	-3.231999999999975e-002
249		3.240999999999974e+000
	-3.240999999999974e+000
	-3.240999999999975e-002
	-3.240999999999975e-002
250		3.249999999999974e+000
	-3.249999999999974e+000
	-3.249999999999974e-002
	-3.249999999999974e-002
251		3.258999999999974e+000
	-3.258999999999974e+000
	-3.258999999999974e-002
	-3.258999999999974e-002
252		3.267999999999974e+000
	-3.267999999999974e+000
	-3.267999999999974e-002
	-3.267999999999974e-002
253		3.276999999999974e+000
	-3.276999999999974e+000
	-3.276999999999974e-002
	-3.276999999999974e-002
254		3.285999999999974e+000
	-3.285999999999974e+000
	-3.285999999999974e-002
	-3.285999999999974e-002
255		3.294999999999974e+000
	-3.294999999999974e+000
	-3.294999999999974e-002
	-3.294999999999974e-002
256		3.303999999999974e+000
	-3.303999999999974e+000
	-3.303999999999974e-002
	-3.303999999999974e-002
257		3.312999999999974e+000
	-3.312999999999974e+000
	-3.312999999999974e-002
	-3.312999999999974e-002
258		3.321999999999973e+000
	-3.321999999999973e+000
	-3.321999999999974e-002
	-3.321999999999974e-002
259		3.330999999999973e+000
	-3.330999999999973e+000
	-3.330999999999974e-002
	-3.330999999999974e-002
260		3.339999999999973e+000
	-3.339999999999973e+000
	-3.339999999999974e-002
	-3.339999999999974e-002
261		3.348999999999973e+000
	-3.348999999999973e+000
	-3.348999999999974e-002
	-3.348999999999974e-002
262		3.357999999999973e+000
	-3.357999999999973e+000
	-3.357999999999973e-002
	-3.357999999999973e-002
263		3.366999999999973e+000
	-3.366999999999973e+000
	-3.366999999999973e-002
	-3.366999999999973e-002
264		3.375999999999973e+000
	-3.375999999999973e+000
	-3.375999999999973e-002
	-3.375999999999973e-002
265		3.384999999999973e+000
	-3.384999999999973e+000
	-3.384999999999973e-002
	-3.384999999999973e-002
266		3.393999999999973e+000
	-3.393999999999973e+000
	-3.393999999999973e-002
	-3.393999999999973e-002
267		3.402999999999973e+000
	-3.402999999999973e+000
	-3.402999999999973e-002
	-3.402999999999973e-002
268		3.411999999999972e+000
	-3.411999999999972e+000
	-3.411999999999973e-002
	-3.411999999999973e-002
269		3.420999999999972e+000
	-3.420999999999972e+000
	-3.420999999999973e-002
	-3.420999999999973e-002
270		3.429999999999972e+000
	-3.429999999999972e+000
	-3.429999999999972e-002
	-3.429999999999972e-002
271		3.438999999999972e+000
	-3.438999999999972e+000
	-3.438999999999972e-002
	-3.438999999999972e-002
272		3.447999999999972e+000
	-3.447999999999972e+000
	-3.447999999999972e-002
	-3.447999999999972e-002
273		3.456999999999972e+000
	-3.456999999999972e+000
	-3.456999999999972e-002
	-3.456999999999972e-002
274		3.465999999999972e+000
	-3.465999999999972e+000
	-3.465999999999972e-002
	-3.465999999999972e-002
275		3.474999999999972e+000
	-3.474999999999972e+000
	-3.474999999999972e-002
	-3.474999999999972e-002
276		3.483999999999972e+000
	-3.483999999999972e+000
	-3.483999999999972e-002
	-3.483999999999972e-002
277		3.492999999999972e+000
	-3.492999999999972e+000
	-3.492999999999972e-002
	-3.492999999999972e-002
278		3.501999999999971e+000
	-3.501999999999971e+000
	-3.501999999999971e-002
	-3.501999999999971e-002
279		3.510999999999971e+000
	-3.510999999999971e+000
	-3.510999999999971e-002
	-3.510999999999971e-002
280		3.519999999999971e+000
	-3.519999999999971e+000
	-3.519999999999971e-002
	-3.519999999999971e-002
281		3.528999999999971e+000
	-3.528999999999971e+000
	-3.528999999999971e-002
	-3.528999999999971e-002
282		3.537999999999971e+000
	-3.537999999999971e+000
	-3.537999999999971e-002
	-3.537999999999971e-002
283		3.546999999999971e+000
	-3.546999999999971e+000
	-3.546999999999971e-002
	-3.546999999999971e-002
284		3.555999999999971e+000
	-3.555999999999971e+000
	-3.555999999999971e-002
	-3.555999999999971e-002
285		3.564999999999971e+000
	-3.564999999999971e+000
	-3.564999999999971e-002
	-3.564999999999971e-002
286		3.573999999999971e+000
	-3.573999999999971e+000
	-3.573999999999971e-002
	-3.573999999999971e-002
287		3.582999999999970e+000
	-3.582999999999970e+000
	-3.582999999999970e-002
	-3.582999999999970e-002
288		3.591999999999970e+000
	-3.591999999999970e+000